 &FCI NORB=  16,NELEC= 8,MS2=0,
  ORBSYM=1,1,1,1,1,1,1,1,1,1,1,1,1,1,1,1
  ISYM=1,
 &END
 0.1250139833483014    1    1    1    1
 0.1256910506687503    1    1    2    2
 1.590036900239127e-07    1    1    3    2
 0.125623070422572    1    1    3    3
 -1.561517988169236e-06    1    1    4    2
 8.038660552833311e-07    1    1    4    3
 0.1252920790177847    1    1    4    4
 -1.004824572586839e-06    1    1    5    2
 1.36996341096676e-06    1    1    5    3
 5.597683625219564e-07    1    1    5    4
 0.1234221063126832    1    1    5    5
 5.949523404727097e-05    1    1    6    1
 0.1262948958491983    1    1    6    6
 -0.0002469146300533126    1    1    7    1
 -1.735132576000155e-07    1    1    7    6
 0.1258669564986301    1    1    7    7
 7.766478493671786e-05    1    1    8    1
 -3.762234548647667e-08    1    1    8    6
 1.585789640001193e-07    1    1    8    7
 0.1251714231791798    1    1    8    8
 -5.188314489048965e-05    1    1    9    1
 2.515102477779732e-08    1    1    9    6
 -1.056605047894773e-07    1    1    9    7
 -4.91958783082399e-08    1    1    9    8
 0.1250001618143239    1    1    9    9
 -9.888822702123446e-05    1    1   10    1
 4.802547343312675e-08    1    1   10    6
 -2.012684168666327e-07    1    1   10    7
 -9.404396086017729e-08    1    1   10    8
 6.296772226630833e-08    1    1   10    9
 0.1247850744198204    1    1   10   10
 -0.001279512799109685    1    1   11    1
 -9.189560128826076e-07    1    1   11    6
 3.826010990469562e-06    1    1   11    7
 8.13507344161272e-07    1    1   11    8
 -5.447966411388717e-07    1    1   11    9
 -1.041560518551554e-06    1    1   11   10
 0.1228818275550899    1    1   11   11
 -0.0006255487324517984    1    1   12    2
 -3.419193400782303e-05    1    1   12    3
 0.0001459052961993584    1    1   12    4
 -0.0001129917687216506    1    1   12    5
 0.1256841573657085    1    1   12   12
 -3.660134193946403e-05    1    1   13    2
 -0.000596607444958665    1    1   13    3
 -7.457044325847611e-05    1    1   13    4
 0.0001425525769461256    1    1   13    5
 3.451475491867605e-08    1    1   13   12
 0.1256168763376478    1    1   13   13
 -0.0001485313604631879    1    1   14    2
 7.653636299352943e-05    1    1   14    3
 0.0004022648920234547    1    1   14    4
 -7.212791013473327e-05    1    1   14    5
 3.206852264697091e-07    1    1   14   12
 -1.641718162116256e-07    1    1   14   13
 0.125288918331719    1    1   14   14
 0.0001111875410484425    1    1   15    2
 -0.0001408433847428643    1    1   15    3
 -7.057898781860053e-05    1    1   15    4
 -0.001566529837359349    1    1   15    5
 1.966743050029439e-07    1    1   15   12
 -2.671622335019986e-07    1    1   15   13
 1.100641124878853e-07    1    1   15   14
 0.1233817415431345    1    1   15   15
 1.439048350206171e-05    1    1   16    1
 5.887975470652491e-05    1    1   16    6
 -0.000245214907206019    1    1   16    7
 -7.83705480014189e-05    1    1   16    8
 5.248972390749738e-05    1    1   16    9
 0.0001003817313506966    1    1   16   10
 -0.001301235979583811    1    1   16   11
 0.1249856773354558    1    1   16   16
 0.1256910506687503    2    1    2    1
 1.590036900239127e-07    2    1    3    1
 -1.561517988167501e-06    2    1    4    1
 -1.004824572590308e-06    2    1    5    1
 0.1238099585237336    2    1    6    2
 0.02394603360135599    2    1    6    3
 -0.0275632318549566    2    1    6    4
 0.002818973173130031    2    1    6    5
 -0.05438144041489921    2    1    7    2
 -0.005013063720175654    2    1    7    3
 0.04436893232698628    2    1    7    4
 -0.002144996488189806    2    1    7    5
 0.02860356553557891    2    1    8    2
 -0.07864056573563638    2    1    8    3
 0.01951780718717848    2    1    8    4
 -0.06483529677991902    2    1    8    5
 -0.02829305306949011    2    1    9    2
 0.0005305232021310619    2    1    9    3
 -0.06365559694515935    2    1    9    4
 -0.0409742020053538    2    1    9    5
 -0.01037516366587045    2    1   10    2
 -0.03971676995378411    2    1   10    3
 -0.04280024173606797    2    1   10    4
 0.04162499379023279    2    1   10    5
 -0.04690084737457745    2    1   11    2
 0.0003275411837373966    2    1   11    3
 -0.00249590565361727    2    1   11    4
 -0.004770644152750475    2    1   11    5
 -0.0006255487324517915    2    1   12    1
 -0.1230722822608194    2    1   12    6
 0.05416713129988884    2    1   12    7
 0.02891991182119349    2    1   12    8
 -0.02867881698996685    2    1   12    9
 -0.01052227188631734    2    1   12   10
 0.04792782825910435    2    1   12   11
 -3.660134193947269e-05    2    1   13    1
 -0.02410697581179497    2    1   13    6
 0.005175894974653498    2    1   13    7
 -0.07888206375433739    2    1   13    8
 0.0006271760888438213    2    1   13    9
 -0.03993665337498724    2    1   13   10
 -0.0002365933654621659    2    1   13   11
 -0.0001485313604631853    2    1   14    1
 -0.02768404839012099    2    1   14    6
 0.04428788058587829    2    1   14    7
 -0.0193259185208206    2    1   14    8
 0.0637181784793731    2    1   14    9
 0.04305265051384517    2    1   14   10
 -0.002299148067538548    2    1   14   11
 0.0001111875410484424    2    1   15    1
 0.002710665082307189    2    1   15    6
 -0.002042530395709966    2    1   15    7
 0.06395566810240884    2    1   15    8
 0.04045401488319991    2    1   15    9
 -0.0411300218988932    2    1   15   10
 -0.004841577096838167    2    1   15   11
 0.00063009552631849    2    1   16    2
 3.496709151140076e-05    2    1   16    3
 -0.0001462173993057664    2    1   16    4
 0.0001128776003867254    2    1   16    5
 -0.1249884577852229    2    1   16   12
 -0.00024410068407577    2    1   16   13
 -0.0004014317986695591    2    1   16   14
 -4.395837619791806e-05    2    1   16   15
 0.1256910506687503    2    2    1    1
 0.3015717838402344    2    2    2    2
 0.01072713896132526    2    2    3    2
 0.06679114709636712    2    2    3    3
 -0.02281036181972326    2    2    4    2
 -0.005909807634980956    2    2    4    3
 0.07184623226692953    2    2    4    4
 -0.00349176401592112    2    2    5    2
 0.02791842437055752    2    2    5    3
 -0.004795123707003766    2    2    5    4
 0.06118355654284327    2    2    5    5
 0.1238099585237336    2    2    6    1
 0.2625363161085957    2    2    6    6
 -0.05438144041489921    2    2    7    1
 -0.1274666796444556    2    2    7    6
 0.0782992229526651    2    2    7    7
 0.0286035655355789    2    2    8    1
 -9.286198289967349e-05    2    2    8    6
 0.0001231237880726375    2    2    8    7
 0.1845881538693672    2    2    8    8
 -0.02829305306949011    2    2    9    1
 7.072938791964876e-05    2    2    9    6
 -9.06040618156028e-05    2    2    9    7
 0.008345083672070163    2    2    9    8
 0.1043850298648259    2    2    9    9
 -0.01037516366587045    2    2   10    1
 0.0001253765096042668    2    2   10    6
 -8.662024534522158e-05    2    2   10    7
 -0.01056526618741622    2    2   10    8
 0.0211710794888408    2    2   10    9
 0.08413150692825608    2    2   10   10
 -0.04690084737457746    2    2   11    1
 -0.09169272593899845    2    2   11    6
 0.03915180577869727    2    2   11    7
 0.0002611549614755674    2    2   11    8
 -0.0002834615365939281    2    2   11    9
 -0.0001015585680341968    2    2   11   10
 0.03607033615305263    2    2   11   11
 -0.1483777646962702    2    2   12    2
 -0.04030638578126901    2    2   12    3
 0.06770264448593574    2    2   12    4
 -0.01461931073820443    2    2   12    5
 0.2996739454775593    2    2   12   12
 -0.040625794678033    2    2   13    2
 0.05749491255728392    2    2   13    3
 0.008169170043269358    2    2   13    4
 0.02671422094317255    2    2   13    5
 0.01086702382043491    2    2   13   12
 0.06731079527818995    2    2   13   13
 -0.06781449529035923    2    2   14    2
 -0.008309734849104577    2    2   14    3
 -0.028527824864309    2    2   14    4
 0.002201742783796706    2    2   14    5
 0.02282361145034171    2    2   14   12
 0.005830716613040217    2    2   14   13
 0.07201365087567975    2    2   14   14
 0.01426591727084604    2    2   15    2
 -0.02633597391911853    2    2   15    3
 0.002265575172721881    2    2   15    4
 -0.05982441214851976    2    2   15    5
 0.00359836141435692    2    2   15   12
 -0.02752999173204623    2    2   15   13
 -0.004665817677033174    2    2   15   14
 0.05960888862219709    2    2   15   15
 0.00063009552631849    2    2   16    1
 0.1225328983356021    2    2   16    6
 -0.05402164659026506    2    2   16    7
 -0.02856567182958218    2    2   16    8
 0.02829881470607998    2    2   16    9
 0.01041776123543874    2    2   16   10
 -0.04765578034576209    2    2   16   11
 0.1242983834544869    2    2   16   16
 1.590036900239161e-07    3    1    2    1
 0.125623070422572    3    1    3    1
 8.038660552833277e-07    3    1    4    1
 1.369963410972831e-06    3    1    5    1
 0.02394603360135599    3    1    6    2
 -0.1136937990816227    3    1    6    3
 -0.0206990841733416    3    1    6    4
 0.004597853203970643    3    1    6    5
 -0.005013063720175654    3    1    7    2
 -0.08044736287353783    3    1    7    3
 -0.03193393708765199    3    1    7    4
 0.003295472429591814    3    1    7    5
 -0.07864056573563638    3    1    8    2
 0.001956647544816518    3    1    8    3
 -0.03287119514856983    3    1    8    4
 0.03370814465436429    3    1    8    5
 0.0005305232021310636    3    1    9    2
 0.0116370818113165    3    1    9    3
 -0.05694216100446946    3    1    9    4
 -0.07799605854504243    3    1    9    5
 -0.03971676995378411    3    1   10    2
 -0.02824686522010882    3    1   10    3
 0.05109457573036726    3    1   10    4
 -0.02261577251943737    3    1   10    5
 0.0003275411837373967    3    1   11    2
 -0.04802505780777128    3    1   11    3
 0.001423867863613327    3    1   11    4
 0.006295360040283908    3    1   11    5
 -3.41919340078265e-05    3    1   12    1
 -0.02398152148449995    3    1   12    6
 0.004930476606869582    3    1   12    7
 -0.07907107541224702    3    1   12    8
 0.0003014795516177733    3    1   12    9
 -0.03978978599079645    3    1   12   10
 -0.0004253639432080354    3    1   12   11
 -0.0005966074449586703    3    1   13    1
 0.112990050973734    3    1   13    6
 0.08023547627731034    3    1   13    7
 0.001866437390643814    3    1   13    8
 0.01183775197360023    3    1   13    9
 -0.02863883688268301    3    1   13   10
 0.04906744546651638    3    1   13   11
 7.65363629935329e-05    3    1   14    1
 -0.02083909754479894    3    1   14    6
 -0.03191041098450495    3    1   14    7
 0.03266868503025409    3    1   14    8
 0.05703097638618122    3    1   14    9
 -0.05139370512485089    3    1   14   10
 0.001303116363420162    3    1   14   11
 -0.0001408433847428609    3    1   15    1
 0.004429382004809121    3    1   15    6
 0.003144636791979703    3    1   15    7
 -0.03324644653773387    3    1   15    8
 0.0769981358139059    3    1   15    9
 0.02234509426690401    3    1   15   10
 0.0063825998850879    3    1   15   11
 3.496709151140076e-05    3    1   16    2
 0.0006011437549712509    3    1   16    3
 7.524642889427913e-05    3    1   16    4
 -0.0001429824672834945    3    1   16    5
 0.0002433425297646051    3    1   16   12
 -0.1249887580676362    3    1   16   13
 0.0002494163208085685    3    1   16   14
 6.158462986506868e-05    3    1   16   15
 1.590036900221814e-07    3    2    1    1
 0.01072713896132525    3    2    2    2
 0.06679114709636712    3    2    3    2
 -0.01067040163462224    3    2    3    3
 -0.005909807634980961    3    2    4    2
 0.001498640232870003    3    2    4    3
 -0.0004214545676661475    3    2    4    4
 0.02791842437055752    3    2    5    2
 -0.01355308095061836    3    2    5    3
 0.05276226548996913    3    2    5    4
 0.0003648490829593069    3    2    5    5
 0.02394603360135599    3    2    6    1
 0.0129809289732482    3    2    6    6
 -0.005013063720175654    3    2    7    1
 -0.02617749680936629    3    2    7    6
 -0.01182057861949565    3    2    7    7
 -0.07864056573563638    3    2    8    1
 2.705272741040486e-05    3    2    8    6
 -0.00018092224153346    3    2    8    7
 -0.08316324030385466    3    2    8    8
 0.0005305232021310653    3    2    9    1
 1.091636439041637e-05    3    2    9    6
 -1.891488530038109e-06    3    2    9    7
 0.04747636232179107    3    2    9    8
 0.1084743246957071    3    2    9    9
 -0.03971676995378411    3    2   10    1
 3.942096151531528e-05    3    2   10    6
 -6.653497976026807e-05    3    2   10    7
 0.05660845775057567    3    2   10    8
 -0.01975050273149774    3    2   10    9
 -0.02541558051466211    3    2   10   10
 0.000327541183737397    3    2   11    1
 -0.01805525869261426    3    2   11    6
 0.004356789872251169    3    2   11    7
 -0.0007518356753497135    3    2   11    8
 7.018041691447416e-06    3    2   11    9
 -0.0004521582298878497    3    2   11   10
 -0.001056043909637424    3    2   11   11
 -0.04030638578126902    3    2   12    2
 0.05759859126558989    3    2   12    3
 0.008145129252152463    3    2   12    4
 0.02698218549419181    3    2   12    5
 0.01010208295176058    3    2   12   12
 0.05749491255728391    3    2   13    2
 0.02635160976931959    3    2   13    3
 0.00671205649946835    3    2   13    4
 -0.01515016362935727    3    2   13    5
 0.06734665398161965    3    2   13   12
 -0.01007199785532666    3    2   13   13
 -0.008309734849104571    3    2   14    2
 -0.006601572127068924    3    2   14    3
 -0.01304821613284861    3    2   14    4
 -0.05273136864758332    3    2   14    5
 0.005632675810977053    3    2   14   12
 -0.001190656910923683    3    2   14   13
 -0.0003895825054252764    3    2   14   14
 -0.02633597391911853    3    2   15    2
 0.01483388010324255    3    2   15    3
 -0.05204696198011988    3    2   15    4
 -0.0007675496872168003    3    2   15    5
 -0.02776643906190643    3    2   15   12
 0.01345800618348523    3    2   15   13
 0.05210778220016025    3    2   15   14
 0.0003593655669952596    3    2   15   15
 3.496709151139903e-05    3    2   16    1
 0.02369581053222576    3    2   16    6
 -0.004958330728477706    3    2   16    7
 0.07853225709506316    3    2   16    8
 -0.0005326751477768947    3    2   16    9
 0.03977940354889663    3    2   16   10
 0.0003212581157902864    3    2   16   11
 3.067500449054636e-08    3    2   16   16
 0.125623070422572    3    3    1    1
 0.06679114709636712    3    3    2    2
 -0.01067040163462223    3    3    3    2
 0.3050440518680435    3    3    3    3
 0.00149864023287    3    3    4    2
 0.02110643818983138    3    3    4    3
 0.06700376214211828    3    3    4    4
 -0.01355308095061836    3    3    5    2
 -0.01032017681403276    3    3    5    3
 0.01590111389030134    3    3    5    4
 0.06241937470626051    3    3    5    5
 -0.1136937990816227    3    3    6    1
 0.2197914104122593    3    3    6    6
 -0.08044736287353783    3    3    7    1
 0.1531220166935616    3    3    7    6
 0.1189993599145373    3    3    7    7
 0.001956647544816515    3    3    8    1
 7.039719579212376e-05    3    3    8    6
 8.320541597110043e-05    3    3    8    7
 0.1344788094165074    3    3    8    8
 0.0116370818113165    3    3    9    1
 -5.888123709653322e-05    3    3    9    6
 -3.098705239972155e-05    3    3    9    7
 -0.01179692352426147    3    3    9    8
 0.1502732570107521    3    3    9    9
 -0.02824686522010882    3    3   10    1
 -0.0001018415113405279    3    3   10    6
 -0.000146805117573586    3    3   10    7
 0.01039801629784389    3    3   10    8
 -0.02447798119516891    3    3   10    9
 0.08843868396061033    3    3   10   10
 -0.04802505780777128    3    3   11    1
 0.08732493517561549    3    3   11    6
 0.0613862817032068    3    3   11    7
 9.016109657845002e-06    3    3   11    8
 0.0001263442100083571    3    3   11    9
 -0.0003088219350499347    3    3   11   10
 0.03803063023552206    3    3   11   11
 0.05759859126558989    3    3   12    2
 0.02640281058208659    3    3   12    3
 0.007009710900689949    3    3   12    4
 -0.01503598462259    3    3   12    5
 0.06738659342299634    3    3   12   12
 0.02635160976931959    3    3   13    2
 -0.1645681157891104    3    3   13    3
 -0.05591533025323806    3    3   13    4
 0.007034201741780406    3    3   13    5
 -0.01074132857776083    3    3   13   12
 0.3032717601256714    3    3   13   13
 -0.006601572127068923    3    3   14    2
 0.05609970999854026    3    3   14    3
 -0.04407591943750233    3    3   14    4
 -0.01900083501696043    3    3   14    5
 -0.001408592574753028    3    3   14   12
 -0.0210292081063686    3    3   14   13
 0.06725636664194388    3    3   14   14
 0.01483388010324255    3    3   15    2
 -0.006901599809020919    3    3   15    3
 -0.01864502580340433    3    3   15    4
 -0.06047664512816523    3    3   15    5
 0.0133225879718757    3    3   15   12
 0.01012221848118223    3    3   15   13
 0.01578986625529318    3    3   15   14
 0.06082694399659846    3    3   15   15
 0.0006011437549712405    3    3   16    1
 -0.1125175229128158    3    3   16    6
 -0.07989143131982719    3    3   16    7
 -0.001961638170471958    3    3   16    8
 -0.01162554882545254    3    3   16    9
 0.028325755006227    3    3   16   10
 -0.04882000844374361    3    3   16   11
 0.1243647786272385    3    3   16   16
 -1.561517988168369e-06    4    1    2    1
 8.038660552841951e-07    4    1    3    1
 0.1252920790177847    4    1    4    1
 5.597683625158849e-07    4    1    5    1
 -0.0275632318549566    4    1    6    2
 -0.0206990841733416    4    1    6    3
 -0.008304407650819853    4    1    6    4
 9.978209352392216e-05    4    1    6    5
 0.04436893232698629    4    1    7    2
 -0.03193393708765199    4    1    7    3
 0.127098272903118    4    1    7    4
 0.0001172984089732253    4    1    7    5
 0.01951780718717849    4    1    8    2
 -0.03287119514856984    4    1    8    3
 -0.02650274890379745    4    1    8    4
 -0.04370628278404953    4    1    8    5
 -0.06365559694515935    4    1    9    2
 -0.05694216100446946    4    1    9    3
 0.01362294162630426    4    1    9    4
 0.0008153313957110424    4    1    9    5
 -0.04280024173606798    4    1   10    2
 0.05109457573036727    4    1   10    3
 0.03249100705674646    4    1   10    4
 -0.07941575987605798    4    1   10    5
 -0.002495905653617269    4    1   11    2
 0.001423867863613325    4    1   11    3
 -0.05696353093941457    4    1   11    4
 0.003336274232090397    4    1   11    5
 0.0001459052961993558    4    1   12    1
 0.02740808196685159    4    1   12    6
 -0.04473198708805143    4    1   12    7
 0.01958540110025128    4    1   12    8
 -0.06386599502288713    4    1   12    9
 -0.04315551904714543    4    1   12   10
 0.00265141403738901    4    1   12   11
 -7.457044325847524e-05    4    1   13    1
 0.02062700267111636    4    1   13    6
 0.03201455794825555    4    1   13    7
 -0.03289176443481737    4    1   13    8
 -0.05737316329939769    4    1   13    9
 0.0513411856964819    4    1   13   10
 -0.001516603335122418    4    1   13   11
 0.0004022648920234651    4    1   14    1
 -0.008195381670763746    4    1   14    6
 0.1263270386374361    4    1   14    7
 0.02655228581118478    4    1   14    8
 -0.01368735119694127    4    1   14    9
 -0.03277624263220295    4    1   14   10
 -0.05813067386537545    4    1   14   11
 -7.057898781859706e-05    4    1   15    1
 9.710703383996614e-05    4    1   15    6
 0.00010423160100594    4    1   15    7
 0.04311688274905147    4    1   15    8
 -0.000804139984866753    4    1   15    9
 0.07847794455140471    4    1   15   10
 0.003391262720947632    4    1   15   11
 -0.0001462173993057603    4    1   16    2
 7.524642889427568e-05    4    1   16    3
 0.0004081696299906703    4    1   16    4
 -7.16847750059337e-05    4    1   16    5
 -0.0004025608616124299    4    1   16   12
 0.0002489727222277967    4    1   16   13
 0.1249881348364795    4    1   16   14
 2.960514391180905e-05    4    1   16   15
 -1.561517988164032e-06    4    2    1    1
 -0.02281036181972326    4    2    2    2
 -0.005909807634980961    4    2    3    2
 0.001498640232870001    4    2    3    3
 0.07184623226692952    4    2    4    2
 -0.0004214545676661436    4    2    4    3
 0.02555931508536171    4    2    4    4
 -0.004795123707003769    4    2    5    2
 0.05276226548996913    4    2    5    3
 0.01996039465848453    4    2    5    4
 -0.004248869745194814    4    2    5    5
 -0.0275632318549566    4    2    6    1
 -0.05795248507768756    4    2    6    6
 0.04436893232698629    4    2    7    1
 0.01945439280955093    4    2    7    6
 0.05359109971747156    4    2    7    7
 0.01951780718717849    4    2    8    1
 7.521686536728053e-06    4    2    8    6
 -1.79544821864771e-06    4    2    8    7
 0.08677763720372837    4    2    8    8
 -0.06365559694515935    4    2    9    1
 1.644354964842394e-05    4    2    9    6
 -8.909366310611754e-05    4    2    9    7
 0.0461124289212376    4    2    9    8
 0.01403620151203354    4    2    9    9
 -0.04280024173606797    4    2   10    1
 -1.039736649526852e-05    4    2   10    6
 -3.873149815277192e-06    4    2   10    7
 0.007206260948005241    4    2   10    8
 0.03820401767997465    4    2   10    9
 -0.1003749884571476    4    2   10   10
 -0.002495905653617269    4    2   11    1
 0.02085279567254229    4    2   11    6
 -0.03855534670073239    4    2   11    7
 0.0002009965093842729    4    2   11    8
 -0.0006645258747216019    4    2   11    9
 -0.0005067067373231589    4    2   11   10
 0.003924408507414445    4    2   11   11
 0.06770264448593574    4    2   12    2
 0.008145129252152463    4    2   12    3
 0.02857535940025031    4    2   12    4
 -0.002334274480188335    4    2   12    5
 -0.02170962049777232    4    2   12   12
 0.008169170043269362    4    2   13    2
 0.00671205649946835    4    2   13    3
 0.01329304319839203    4    2   13    4
 0.05294334357205847    4    2   13    5
 -0.00592676932199199    4    2   13   12
 0.001390545310987875    4    2   13   13
 -0.028527824864309    4    2   14    2
 -0.01304821613284862    4    2   14    3
 0.06985379662394839    4    2   14    4
 -0.02027896920799919    4    2   14    5
 -0.07226435640696599    4    2   14   12
 0.0003170204322342087    4    2   14   13
 0.02455038114715526    4    2   14   14
 0.00226557517272188    4    2   15    2
 -0.05204696198011989    4    2   15    3
 -0.01983798736518034    4    2   15    4
 0.003977137435016784    4    2   15    5
 0.004772153878199422    4    2   15   12
 -0.05231320129196861    4    2   15   13
 0.0199608923846217    4    2   15   14
 -0.004230029713684387    4    2   15   15
 -0.0001462173993057603    4    2   16    1
 -0.02727188105183415    4    2   16    6
 0.04402034806107963    4    2   16    7
 -0.0195122140183703    4    2   16    8
 0.06366423457159258    4    2   16    9
 0.04289140960200678    4    2   16   10
 -0.002449039804849546    4    2   16   11
 -3.11887824624571e-07    4    2   16   16
 8.038660552824603e-07    4    3    1    1
 -0.005909807634980961    4    3    2    2
 0.001498640232869998    4    3    3    2
 0.02110643818983137    4    3    3    3
 -0.0004214545676661449    4    3    4    2
 0.06700376214211828    4    3    4    3
 -0.01748800701476783    4    3    4    4
 0.05276226548996913    4    3    5    2
 0.01590111389030134    4    3    5    3
 -0.0214187789341553    4    3    5    4
 0.002292034093202995    4    3    5    5
 -0.0206990841733416    4    3    6    1
 0.02939715570751576    4    3    6    6
 -0.03193393708765198    4    3    7    1
 0.03265885387663255    4    3    7    6
 -0.02709375217555062    4    3    7    7
 -0.03287119514856982    4    3    8    1
 3.006660724957793e-05    4    3    8    6
 -4.304317961649629e-05    4    3    8    7
 -0.03493004578893674    4    3    8    8
 -0.05694216100446946    4    3    9    1
 1.702298229420635e-05    4    3    9    6
 -0.0001310842978561042    4    3    9    7
 0.07194553178556808    4    3    9    8
 -0.02466086337215444    4    3    9    9
 0.05109457573036726    4    3   10    1
 -4.05747832956259e-05    4    3   10    6
 3.364708808591408e-05    4    3   10    7
 -0.003665606668877666    4    3   10    8
 0.07751490553404623    4    3   10    9
 0.05936496916900737    4    3   10   10
 0.001423867863613326    4    3   11    1
 0.01555155715716578    4    3   11    6
 0.02769401326465652    4    3   11    7
 -0.0003219540769937176    4    3   11    8
 -0.0005809947945135524    4    3   11    9
 0.0005945895981718756    4    3   11   10
 -0.002078428714908506    4    3   11   11
 0.008145129252152461    4    3   12    2
 0.007009710900689947    4    3   12    3
 0.01316727891368189    4    3   12    4
 0.05290849346536957    4    3   12    5
 -0.00573191177388038    4    3   12   12
 0.00671205649946835    4    3   13    2
 -0.05591533025323805    4    3   13    3
 0.0442747385319789    4    3   13    4
 0.0191478618644026    4    3   13    5
 0.001611487816485823    4    3   13   12
 0.02030292867313136    4    3   13   13
 -0.01304821613284862    4    3   14    2
 -0.04407591943750233    4    3   14    3
 -0.04553997641737137    4    3   14    4
 0.02166223013046277    4    3   14    5
 0.00059250363626156    4    3   14   12
 -0.06744176439687427    4    3   14   13
 -0.01685930186653085    4    3   14   14
 -0.05204696198011989    4    3   15    2
 -0.01864502580340432    4    3   15    3
 0.02117401071613036    4    3   15    4
 -0.001930191554477006    4    3   15    5
 -0.05228904884578794    4    3   15   12
 -0.0159664808315565    4    3   15   13
 -0.02144193099868646    4    3   15   14
 0.002287627333994283    4    3   15   15
 7.524642889427826e-05    4    3   16    1
 -0.0204882744509647    4    3   16    6
 -0.03169162902634143    4    3   16    7
 0.03283750386322321    4    3   16    8
 0.05693156334963011    4    3   16    9
 -0.0511911626031732    4    3   16   10
 0.001400279637582548    4    3   16   11
 1.613089720672514e-07    4    3   16   16
 0.1252920790177847    4    4    1    1
 0.07184623226692952    4    4    2    2
 -0.0004214545676661501    4    4    3    2
 0.06700376214211828    4    4    3    3
 0.02555931508536171    4    4    4    2
 -0.01748800701476783    4    4    4    3
 0.2958532457715786    4    4    4    4
 0.01996039465848453    4    4    5    2
 -0.0214187789341553    4    4    5    3
 -0.01276975296794188    4    4    5    4
 0.06589889814802348    4    4    5    5
 -0.008304407650819853    4    4    6    1
 0.01981068377816947    4    4    6    6
 0.127098272903118    4    4    7    1
 -0.02560202348003572    4    4    7    6
 0.303412158270977    4    4    7    7
 -0.02650274890379745    4    4    8    1
 2.458665167670484e-05    4    4    8    6
 -0.0002249954226554423    4    4    8    7
 0.06477329914572325    4    4    8    8
 0.01362294162630425    4    4    9    1
 -1.302668118945317e-05    4    4    9    6
 0.0001316048483553529    4    4    9    7
 0.00374450342655128    4    4    9    8
 0.1203250299963894    4    4    9    9
 0.03249100705674644    4    4   10    1
 -2.560182850226956e-05    4    4   10    6
 0.0002497929461550939    4    4   10    7
 0.0005546948605176633    4    4   10    8
 0.003138920933619497    4    4   10    9
 0.1886675971195991    4    4   10   10
 -0.05696353093941457    4    4   11    1
 0.00821613427096045    4    4   11    6
 -0.1186534963871466    4    4   11    7
 -0.0002177771080625345    4    4   11    8
 0.0001217593765094758    4    4   11    9
 0.0003461925062002126    4    4   11   10
 0.05302928618354254    4    4   11   11
 0.02857535940025031    4    4   12    2
 0.01316727891368189    4    4   12    3
 -0.070545299943336    4    4   12    4
 0.02026180022586034    4    4   12    5
 0.07252416937152807    4    4   12   12
 0.01329304319839203    4    4   13    2
 0.04427473853197891    4    4   13    3
 0.04575435833587814    4    4   13    4
 -0.02155901096813494    4    4   13    5
 -0.0005236530524685466    4    4   13   12
 0.06763130419964761    4    4   13   13
 0.06985379662394839    4    4   14    2
 -0.04553997641737137    4    4   14    3
 0.1394128039357897    4    4   14    4
 0.01003185876612692    4    4   14    5
 -0.02584538469948683    4    4   14   12
 0.01757782155756778    4    4   14   13
 0.2949360737832101    4    4   14   14
 -0.01983798736518034    4    4   15    2
 0.02117401071613036    4    4   15    3
 0.009743511747179792    4    4   15    4
 -0.06491318285571496    4    4   15    5
 -0.01992630238641292    4    4   15   12
 0.02132840943269364    4    4   15   13
 -0.01285518891655762    4    4   15   14
 0.06430631431696419    4    4   15   15
 0.000408169629990672    4    4   16    1
 -0.008223127448088117    4    4   16    6
 0.1262382625513449    4    4   16    7
 0.02636924018427743    4    4   16    8
 -0.01356292881209899    4    4   16    9
 -0.03243667367340538    4    4   16   10
 -0.05800521545306498    4    4   16   11
 0.1246898664878142    4    4   16   16
 -1.004824572588573e-06    5    1    2    1
 1.369963410970338e-06    5    1    3    1
 5.597683625176196e-07    5    1    4    1
 0.1234221063126832    5    1    5    1
 0.002818973173130031    5    1    6    2
 0.004597853203970643    5    1    6    3
 9.978209352392226e-05    5    1    6    4
 -0.001693684341626387    5    1    6    5
 -0.002144996488189806    5    1    7    2
 0.003295472429591814    5    1    7    3
 0.0001172984089732253    5    1    7    4
 0.007239270129829264    5    1    7    5
 -0.06483529677991902    5    1    8    2
 0.03370814465436429    5    1    8    3
 -0.04370628278404953    5    1    8    4
 -0.003902288576889668    5    1    8    5
 -0.0409742020053538    5    1    9    2