 &FCI NORB=  16,NELEC= 8,MS2=2,
  ORBSYM=1,1,1,1,1,1,1,1,1,1,1,1,1,1,1,1
  ISYM=1,
 &END
 0.1250154403130196    1    1    1    1
 0.1260371417547815    1    1    2    2
 3.077259181035468e-05    1    1    3    2
 0.1244962351571431    1    1    3    3
 -0.0008480926922564457    1    1    4    2
 6.708640673944448e-05    1    1    4    3
 0.1248730761009501    1    1    4    4
 -0.0005826536409239197    1    1    5    2
 -9.883851869665547e-05    1    1    5    3
 0.0004604427022023051    1    1    5    4
 0.124659785609583    1    1    5    5
 0.001378397029829099    1    1    6    1
 0.1272431290963158    1    1    6    6
 6.784710519354593e-05    1    1    7    1
 -7.201886287633861e-07    1    1    7    6
 0.1252660385474686    1    1    7    7
 -9.041372813668042e-05    1    1    8    1
 9.627589017371561e-07    1    1    8    6
 -7.170605180115142e-08    1    1    8    7
 0.1250763975224431    1    1    8    8
 -0.0002016765061469972    1    1    9    1
 2.16204404602419e-06    1    1    9    6
 -1.60794986454188e-07    1    1    9    7
 2.148156887198105e-07    1    1    9    8
 0.1246321499987639    1    1    9    9
 3.207092734318413e-05    1    1   10    1
 5.254112723615946e-07    1    1   10    6
 -1.705509717639575e-08    1    1   10    7
 2.277971217066751e-08    1    1   10    8
 5.088241283366608e-08    1    1   10    9
 0.1239776151785093    1    1   10   10
 -9.398687785822909e-05    1    1   11    1
 -1.542053884219114e-06    1    1   11    6
 5.013110255955347e-08    1    1   11    7
 -6.697926156699666e-08    1    1   11    8
 -1.499080276497493e-07    1    1   11    9
 -3.668985691603721e-08    1    1   11   10
 0.1238042803120914    1    1   11   11
 -0.001386488428325968    1    1   12    2
 -0.0002923456368150194    1    1   12    3
 0.0007949366173620916    1    1   12    4
 0.0004036177410258884    1    1   12    5
 0.1266325152371425    1    1   12   12
 0.0002516871770635125    1    1   13    2
 -0.0005060862476091803    1    1   13    3
 -0.0001651379890767884    1    1   13    4
 0.0003986878860961843    1    1   13    5
 -1.912337993386151e-05    1    1   13   12
 0.1245491968892797    1    1   13   13
 0.0001538502593058189    1    1   14    2
 0.0001833221496798042    1    1   14    3
 0.0004406421953770051    1    1   14    4
 0.00024642205551988    1    1   14    5
 -2.341738777750235e-07    1    1   14   12
 3.312288860498128e-06    1    1   14   13
 0.1245242842098562    1    1   14   14
 -0.0002542592870023714    1    1   15    2
 4.988966547434795e-05    1    1   15    3
 -0.0001668319514692806    1    1   15    4
 0.0003753876121044379    1    1   15    5
 3.572055076254271e-05    1    1   15   12
 -9.743226197147375e-07    1    1   15   13
 9.449350191871944e-07    1    1   15   14
 0.1242277650412644    1    1   15   15
 8.53389346127699e-06    1    1   16    1
 0.001354562426589491    1    1   16    6
 -6.669386709891138e-05    1    1   16    7
 8.913235989051367e-05    1    1   16    8
 0.0002000162793451745    1    1   16    9
 3.228963870668193e-05    1    1   16   10
 -9.478327631567061e-05    1    1   16   11
 0.1249849490313893    1    1   16   16
 0.1260371417547815    2    1    2    1
 3.077259181035114e-05    2    1    3    1
 -0.0008480926922564441    2    1    4    1
 -0.0005826536409239194    2    1    5    1
 0.09384389713705903    2    1    6    2
 0.01251889599262634    2    1    6    3
 -0.08140118139315802    2    1    6    4
 -0.05288097612277867    2    1    6    5
 0.006601810340977527    2    1    7    2
 -0.05516737841179536    2    1    7    3
 -0.03871344420940218    2    1    7    4
 0.0101612450694024    2    1    7    5
 0.08169814103958156    2    1    8    2
 0.03654230649150603    2    1    8    3
 0.06325476591229617    2    1    8    4
 -0.01494404383764332    2    1    8    5
 -0.03671774102198703    2    1    9    2
 0.03426526239776096    2    1    9    3
 -0.05310559348747608    2    1    9    4
 0.02804034430322478    2    1    9    5
 -0.006874254095004466    2    1   10    2
 0.06467054379893945    2    1   10    3
 -0.01127599944098356    2    1   10    4
 0.01154504136519179    2    1   10    5
 -0.02431619036018835    2    1   11    2
 0.01294171685831312    2    1   11    3
 -0.02283840269861253    2    1   11    4
 -0.02138378289859235    2    1   11    5
 -0.001386488428325961    2    1   12    1
 -0.1287831704101184    2    1   12    6
 0.02001682843714544    2    1   12    7
 0.04593700034148597    2    1   12    8
 -0.01673650901680893    2    1   12    9
 0.004784798555792495    2    1   12   10
 0.00276164497694716    2    1   12   11
 0.0002516871770635179    2    1   13    1
 0.01698434394058084    2    1   13    6
 0.05278388850535433    2    1   13    7
 -0.02397743476732406    2    1   13    8
 -0.0174909563037026    2    1   13    9
 0.04779127341974071    2    1   13   10
 0.02642438417854583    2    1   13   11
 0.0001538502593058189    2    1   14    1
 0.02033538449468672    2    1   14    6
 -0.0374574935667369    2    1   14    7
 0.08891979976853658    2    1   14    8
 -0.0273106293797987    2    1   14    9
 -0.01986964724165342    2    1   14   10
 0.03153169932110994    2    1   14   11
 -0.000254259287002361    2    1   15    1
 -0.01574806401716779    2    1   15    6
 0.006891816017453087    2    1   15    7
 -0.04039783685265734    2    1   15    8
 0.06875674814607821    2    1   15    9
 -0.04390744309258897    2    1   15   10
 -0.008561499198999878    2    1   15   11
 0.002409573279119735    2    1   16    2
 4.133202592684534e-05    2    1   16    3
 -0.001917652058216765    2    1   16    4
 -0.001601834578046496    2    1   16    5
 -0.1034738962878502    2    1   16   12
 -0.02495158982807844    2    1   16   13
 -0.06466346424781624    2    1   16   14
 0.01006781404140526    2    1   16   15
 0.1260371417547815    2    2    1    1
 0.2639132435666643    2    2    2    2
 0.01396846651810494    2    2    3    2
 0.08071125941904354    2    2    3    3
 -1.309528791382415e-05    2    2    4    2
 0.004654152030940206    2    2    4    3
 0.1239046351964436    2    2    4    4
 -0.05294000438987981    2    2    5    2
 -0.002545454023698374    2    2    5    3
 0.01408772697732448    2    2    5    4
 0.03567376007273505    2    2    5    5
 0.09384389713705903    2    2    6    1
 0.2803051363397182    2    2    6    6
 0.006601810340977529    2    2    7    1
 -6.951703432432038e-05    2    2    7    6
 0.07444548903110962    2    2    7    7
 0.08169814103958156    2    2    8    1
 -0.0009047316334392907    2    2    8    6
 -0.06421116494245113    2    2    8    7
 0.1956639636330552    2    2    8    8
 -0.03671774102198703    2    2    9    1
 0.0003476390779689356    2    2    9    6
 0.003605433221202859    2    2    9    7
 -0.08864969326025604    2    2    9    8
 0.09767501826881397    2    2    9    9
 -0.006874254095004464    2    2   10    1
 0.007651656863408986    2    2   10    6
 6.535389183072336e-06    2    2   10    7
 -2.683838010280804e-05    2    2   10    8
 -1.113497679075065e-05    2    2   10    9
 0.07356149121120741    2    2   10   10
 -0.02431619036018835    2    2   11    1
 0.01419278981524849    2    2   11    6
 1.881221485557542e-05    2    2   11    7
 3.328222554721997e-05    2    2   11    8
 -6.994335872462179e-05    2    2   11    9
 0.016468918035058    2    2   11   10
 0.02832258438096521    2    2   11   11
 -0.06093813786494746    2    2   12    2
 -0.009709429369291934    2    2   12    3
 0.1064733123761457    2    2   12    4
 0.04674811524700236    2    2   12    5
 0.2363163037777368    2    2   12   12
 -0.003320118949488948    2    2   13    2
 -0.005655570290011902    2    2   13    3
 -0.04086359810924711    2    2   13    4
 -0.00374339532828557    2    2   13    5
 0.007686546904674192    2    2   13   12
 0.06064468874996341    2    2   13   13
 0.07333351975818458    2    2   14    2
 0.03000724164262604    2    2   14    3
 0.05170714200625436    2    2   14    4
 -0.03499036328887075    2    2   14    5
 0.06270822946917758    2    2   14   12
 -0.01420402329227627    2    2   14   13
 0.1285596121658053    2    2   14   14
 -0.05366573512546277    2    2   15    2
 -0.021299219448564    2    2   15    3
 -0.03629480733113038    2    2   15    4
 0.02470174342321619    2    2   15    5
 -0.01721748188731503    2    2   15   12
 -0.02189326671622091    2    2   15   13
 -0.04878465008068673    2    2   15   14
 0.07027649705160721    2    2   15   15
 0.002409573279119742    2    2   16    1
 0.09214281411429344    2    2   16    6
 -0.006521970060605183    2    2   16    7
 -0.08172215183013623    2    2   16    8
 0.03668245564090879    2    2   16    9
 -0.006934097560001108    2    2   16   10
 -0.0245396979338901    2    2   16   11
 0.1239891753803488    2    2   16   16
 3.077259181035468e-05    3    1    2    1
 0.1244962351571431    3    1    3    1
 6.708640673944188e-05    3    1    4    1
 -9.8838518696652e-05    3    1    5    1
 0.01251889599262634    3    1    6    2
 -0.0507592987092409    3    1    6    3
 -0.006992954912945675    3    1    6    4
 -0.005199078009407523    3    1    6    5
 -0.05516737841179535    3    1    7    2
 0.07651087869624769    3    1    7    3
 0.05598785204503562    3    1    7    4
 0.002435799745095776    3    1    7    5
 0.03654230649150603    3    1    8    2
 -0.01839750452716198    3    1    8    3
 -0.005066518921359246    3    1    8    4
 0.01787610209591228    3    1    8    5
 0.03426526239776095    3    1    9    2
 0.03306684979177595    3    1    9    3
 -0.07243287836616992    3    1    9    4
 0.04548396314964723    3    1    9    5
 0.06467054379893945    3    1   10    2
 0.005788603551407157    3    1   10    3
 0.07363396834696417    3    1   10    4
 0.06653367659605516    3    1   10    5
 0.01294171685831311    3    1   11    2
 -0.05706808374140801    3    1   11    3
 0.03610388565490932    3    1   11    4
 -0.0335246098008462    3    1   11    5
 -0.0002923456368150229    3    1   12    1
 -0.0149251436009321    3    1   12    6
 -0.07403800866892367    3    1   12    7
 0.02741446054439384    3    1   12    8
 0.04681361137174984    3    1   12    9
 0.001844065042160614    3    1   12   10
 -0.006020181363024487    3    1   12   11
 -0.0005060862476091842    3    1   13    1
 -0.04037319799783456    3    1   13    6
 -0.07332416229954894    3    1   13    7
 0.03211031125853656    3    1   13    8
 0.008042821645546002    3    1   13    9
 -0.04208435263485742    3    1   13   10
 -0.03007660712249093    3    1   13   11
 0.0001833221496798034    3    1   14    1
 0.01972322053786257    3    1   14    6
 0.03687952361548626    3    1   14    7
 0.01602568559013634    3    1   14    8
 0.003891587588565304    3    1   14    9
 -0.1120754950818413    3    1   14   10
 0.007506981420108336    3    1   14   11
 4.988966547434795e-05    3    1   15    1
 0.02204613610042135    3    1   15    6
 0.003157657970933464    3    1   15    7
 0.003679601412097167    3    1   15    8
 0.08557260654893911    3    1   15    9
 0.006885344709232348    3    1   15   10
 0.07089426700717523    3    1   15   11
 4.133202592684967e-05    3    1   16    2
 -0.001715223526478978    3    1   16    3
 7.320366715176546e-05    3    1   16    4
 -0.0008228059369989682    3    1   16    5
 0.0005203157109770363    3    1   16   12
 0.1015719574864154    3    1   16   13
 -0.04846961245203901    3    1   16   14
 -0.05433641120385715    3    1   16   15
 3.077259181035549e-05    3    2    1    1
 0.01396846651810494    3    2    2    2
 0.08071125941904354    3    2    3    2
 -0.03791697561047788    3    2    3    3
 0.004654152030940203    3    2    4    2
 -0.004555756995821797    3    2    4    3
 0.002110938107889163    3    2    4    4
 -0.002545454023698374    3    2    5    2
 0.0473462464138627    3    2    5    3
 -0.007625521354812411    3    2    5    4
 0.02245031221108533    3    2    5    5
 0.01251889599262634    3    2    6    1
 0.02074850202507019    3    2    6    6
 -0.05516737841179536    3    2    7    1
 0.0006715370928378626    3    2    7    6
 -0.1072310785725902    3    2    7    7
 0.03654230649150603    3    2    8    1
 -0.0004086126601011901    3    2    8    6
 0.02632629955899584    3    2    8    7
 0.02796580917841248    3    2    8    8
 0.03426526239776095    3    2    9    1
 -0.0003224689032646956    3    2    9    6
 0.02769519704289855    3    2    9    7
 -0.01919484914212089    3    2    9    8
 0.07914421656779415    3    2    9    9
 0.06467054379893945    3    2   10    1
 -0.05413436471242111    3    2   10    6
 -4.771317328527816e-05    3    2   10    7
 6.710831414459372e-05    3    2   10    8
 0.0001496251864440354    3    2   10    9
 -0.001729220519590173    3    2   10   10
 0.01294171685831312    3    2   11    1
 -0.01100912515695419    3    2   11    6
 -4.235924477217739e-05    3    2   11    7
 3.857122561127781e-05    3    2   11    8
 6.648831455295471e-05    3    2   11    9
 -0.07503549738844649    3    2   11   10
 -0.01890181830000306    3    2   11   11
 -0.009709429369291934    3    2   12    2
 0.05234955938517698    3    2   12    3
 0.02728581226260961    3    2   12    4
 0.008661390343094112    3    2   12    5
 0.006554203724250528    3    2   12   12
 -0.005655570290011901    3    2   13    2
 0.01464556730894904    3    2   13    3
 0.06982431678138085    3    2   13    4
 0.009193708206178208    3    2   13    5
 -0.04569773607881323    3    2   13   12
 -0.0866426485362644    3    2   13   13
 0.03000724164262605    3    2   14    2
 -0.06614530243354835    3    2   14    3
 -0.008353231287846782    3    2   14    4
 -0.01755485827528368    3    2   14    5
 0.02687563701334534    3    2   14   12
 -0.01729546783233965    3    2   14   13
 0.04779616322065946    3    2   14   14
 -0.021299219448564    3    2   15    2
 0.03647363018477941    3    2   15    3
 -0.06292736092474797    3    2   15    4
 -0.001221291171830813    3    2   15    5
 0.01455274710400261    3    2   15   12
 0.02030078374279799    3    2   15   13
 0.0317761961370983    3    2   15   14
 0.03167954036475288    3    2   15   15
 4.13320259268462e-05    3    2   16    1
 0.01216759650449319    3    2   16    6
 0.05505523034283395    3    2   16    7
 -0.03652757730395972    3    2   16    8
 -0.03437961186635841    3    2   16    9
 0.06520575178371932    3    2   16   10
 0.0130449223718225    3    2   16   11
 -2.718297090391687e-05    3    2   16   16
 0.1244962351571431    3    3    1    1
 0.08071125941904354    3    3    2    2
 -0.03791697561047789    3    3    3    2
 0.2300483556751068    3    3    3    3
 -0.004555756995821793    3    3    4    2
 0.005306052735279745    3    3    4    3
 0.1219719391536195    3    3    4    4
 0.0473462464138627    3    3    5    2
 0.03156917472947905    3    3    5    3
 0.003954014192558043    3    3    5    4
 0.06420421747574268    3    3    5    5
 -0.05075929870924091    3    3    6    1
 0.04459554741576346    3    3    6    6
 0.07651087869624769    3    3    7    1
 -0.0009256356547179342    3    3    7    6
 0.193633945220823    3    3    7    7
 -0.01839750452716198    3    3    8    1
 0.0002019103654845548    3    3    8    6
 -0.05941533425586917    3    3    8    7
 0.03252973725715762    3    3    8    8
 0.03306684979177595    3    3    9    1
 -0.0003202859197600379    3    3    9    6
 -0.05549257454248018    3    3    9    7
 0.02997054901813901    3    3    9    8
 0.1539740828845926    3    3    9    9
 0.005788603551407157    3    3   10    1
 -0.005879909384479214    3    3   10    6
 -1.937840194665471e-05    3    3   10    7
 1.179502626044873e-05    3    3   10    8
 7.682731394187951e-06    3    3   10    9
 0.2294521141416872    3    3   10   10
 -0.057068083741408    3    3   11    1
 0.04835292935819955    3    3   11    6
 8.994554633538502e-05    3    3   11    7
 -7.264506401183039e-05    3    3   11    8
 -9.252679183048695e-05    3    3   11    9
 0.01483868549891487    3    3   11   10
 0.09582940788368265    3    3   11   11
 0.05234955938517698    3    3   12    2
 -0.02802306674441435    3    3   12    3
 -0.06124749514867839    3    3   12    4
 0.02278878999196264    3    3   12    5
 0.06942587784556578    3    3   12   12
 0.01464556730894904    3    3   13    2
 -0.02036392788110847    3    3   13    3
 -0.07004566309276962    3    3   13    4
 -0.007421624280239487    3    3   13    5
 0.05941004952893219    3    3   13   12
 0.1691986894595442    3    3   13   13
 -0.06614530243354835    3    3   14    2
 0.005113918092315986    3    3   14    3
 -0.05200600489703419    3    3   14    4
 -0.05820913145183026    3    3   14    5
 -0.02137922606805686    3    3   14   12
 -0.02692869480679448    3    3   14   13
 0.1367945057201294    3    3   14   14
 0.03647363018477941    3    3   15    2
 -0.01652746757088848    3    3   15    3
 -0.02505156939312335    3    3   15    4
 0.01580478634649535    3    3   15    5
 0.02491517491152638    3    3   15   12
 -0.06651012740444395    3    3   15   13
 0.02683910745674789    3    3   15   14
 0.127645155251247    3    3   15   15
 -0.001715223526478976    3    3   16    1
 -0.04981644189019726    3    3   16    6
 -0.0763837050022525    3    3   16    7
 0.01843487999183402    3    3   16    8
 -0.03306081069825718    3    3   16    9
 0.005839098719694472    3    3   16   10
 -0.05762134881954734    3    3   16   11
 0.1254889300391496    3    3   16   16
 -0.0008480926922564458    4    1    2    1
 6.708640673944296e-05    4    1    3    1
 0.1248730761009501    4    1    4    1
 0.0004604427022023069    4    1    5    1
 -0.08140118139315802    4    1    6    2
 -0.006992954912945674    4    1    6    3
 -0.005422547014723118    4    1    6    4
 0.02782883981264988    4    1    6    5
 -0.03871344420940217    4    1    7    2
 0.05598785204503562    4    1    7    3
 0.001199981513524618    4    1    7    4
 -0.03588778197004052    4    1    7    5
 0.06325476591229616    4    1    8    2
 -0.00506651892135925    4    1    8    3
 0.01833892981983558    4    1    8    4
 -0.05116796004857868    4    1    8    5
 -0.05310559348747608    4    1    9    2
 -0.07243287836616992    4    1    9    3
 0.02270390368274602    4    1    9    4
 -0.04354777312406597    4    1    9    5
 -0.01127599944098355    4    1   10    2
 0.07363396834696419    4    1   10    3
 -0.01977410833506455    4    1   10    4
 0.01888711886298357    4    1   10    5
 -0.02283840269861253    4    1   11    2
 0.03610388565490932    4    1   11    3
 0.01806165828005502    4    1   11    4
 -0.08703869237541055    4    1   11    5
 0.0007949366173620898    4    1   12    1
 0.07253446982446415    4    1   12    6
 -0.02122842085598223    4    1   12    7
 0.06352944744829439    4    1   12    8
 -0.04060608831987944    4    1   12    9
 0.007127827680705349    4    1   12   10
 -0.002119248891240224    4    1   12   11
 -0.0001651379890767928    4    1   13    1
 -0.004443357833250983    4    1   13    6
 -0.07243046894472066    4    1   13    7
 -0.0122407818413907    4    1   13    8
 0.02311869649041912    4    1   13    9
 0.05175874907689487    4    1   13   10
 0.08219026393136834    4    1   13   11
 0.0004406421953769965    4    1   14    1
 0.03565568514969911    4    1   14    6
 -0.01282201842266489    4    1   14    7
 0.02031812642704591    4    1   14    8
 -0.05909740461046906    4    1   14    9
 -0.01890648828286159    4    1   14   10
 0.02423520155654631    4    1   14   11
 -0.0001668319514692776    4    1   15    1
 -0.02399016115406265    4    1   15    6
 0.003389140237610441    4    1   15    7
 -0.05105788195409001    4    1   15    8
 -0.06816413132168107    4    1   15    9
 -0.05830441120786257    4    1   15   10
 0.04906574158553058    4    1   15   11
 -0.001917652058216766    4    1   16    2
 7.320366715176524e-05    4    1   16    3
 0.0001383536805715504    4    1   16    4
 0.0002626837257797675    4    1   16    5
 0.05585974010258805    4    1   16   12
 0.004431823651722437    4    1   16   13
 -0.07884100866678936    4    1   16   14
 0.07914192352100102    4    1   16   15
 -0.000848092692256444    4    2    1    1
 -1.309528791381027e-05    4    2    2    2
 0.004654152030940207    4    2    3    2
 -0.0045557569958218    4    2    3    3
 0.1239046351964436    4    2    4    2
 0.002110938107889158    4    2    4    3
 0.00116388400649978    4    2    4    4
 0.01408772697732448    4    2    5    2
 -0.007625521354812414    4    2    5    3
 0.0003054197633489757    4    2    5    4
 -0.001368139571378226    4    2    5    5
 -0.08140118139315802    4    2    6    1
 -0.132424211637644    4    2    6    6
 -0.03871344420940218    4    2    7    1
 0.0004602077894003225    4    2    7    6
 -0.05982983823799739    4    2    7    7
 0.06325476591229617    4    2    8    1
 -0.0006927319045786325    4    2    8    6
 -0.008212155613009624    4    2    8    7
 0.1119305167367949    4    2    8    8
 -0.05310559348747607    4    2    9    1
 0.0004644916501781706    4    2    9    6
 0.03578304398359795    4    2    9    7
 -0.07858418187424246    4    2    9    8
 -0.04635804088199875    4    2    9    9
 -0.01127599944098355    4    2   10    1
 0.007861224033013642    4    2   10    6
 1.508095014958438e-05    4    2   10    7
 -2.35361725226626e-05    4    2   10    8
 -2.109551384066013e-06    4    2   10    9
 0.08650431221270251    4    2   10   10
 -0.02283840269861253    4    2   11    1
 0.02273563526651313    4    2   11    6
 8.637115420886361e-07    4    2   11    7
 1.124055712498489e-05    4    2   11    8
 -0.0001165146261408261    4    2   11    9
 0.02070320211581803    4    2   11   10
 0.04020124465029311    4    2   11   11
 0.1064733123761457    4    2   12    2
 0.02728581226260961    4    2   12    3
 0.008870619234235698    4    2   12    4
 -0.04804271012081227    4    2   12    5
 -0.09280056873847722    4    2   12   12
 -0.04086359810924711    4    2   13    2
 0.06982431678138086    4    2   13    3
 -0.01072097761266263    4    2   13    4
 -0.006779933504837979    4    2   13    5
 -0.01449126782493911    4    2   13   12
 0.004588833736471638    4    2   13   13
 0.05170714200625436    4    2   14    2
 -0.008353231287846782    4    2   14    3
 0.01451998063250692    4    2   14    4
 -0.03684074567568368    4    2   14    5
 0.04171388602329976    4    2   14   12
 0.01750110943592121    4    2   14   13
 0.08721445900004156    4    2   14   14
 -0.03629480733113038    4    2   15    2
 -0.06292736092474797    4    2   15    3
 0.01310684199793724    4    2   15    4
 -0.01358806789678941    4    2   15    5
 -0.05096385359821424    4    2   15   12
 -0.01037893997673842    4    2   15   13
 -0.04569824758301664    4    2   15   14
 0.005770383850578003    4    2   15   15
 -0.001917652058216765    4    2   16    1
 -0.07993235702457102    4    2   16    6
 0.03856934463002949    4    2   16    7
 -0.06313958279370389    4    2   16    8
 0.05339634837853549    4    2   16    9
 -0.01137166401135254    4    2   16   10
 -0.02304940538727287    4    2   16   11
 0.0008241098501060558    4    2   16   16
 6.708640673944014e-05    4    3    1    1
 0.004654152030940209    4    3    2    2
 -0.004555756995821804    4    3    3    2
 0.005306052735279755    4    3    3    3
 0.002110938107889163    4    3    4    2
 0.1219719391536195    4    3    4    3
 -0.01958033364295365    4    3    4    4
 -0.007625521354812416    4    3    5    2
 0.003954014192558035    4    3    5    3
 -0.004352328030075035    4    3    5    4
 0.00866419210069979    4    3    5    5
 -0.006992954912945672    4    3    6    1
 -0.0116390782290646    4    3    6    6
 0.05598785204503562    4    3    7    1
 -0.0006819844411058346    4    3    7    6
 0.10227896771759    4    3    7    7
 -0.005066518921359247    4    3    8    1
 6.343966704901101e-05    4    3    8    6
 -0.04943391509308708    4    3    8    7
 0.02304583023514432    4    3    8    8
 -0.07243287836616992    4    3    9    1
 0.0006719243807743841    4    3    9    6
 -0.02012426964546056    4    3    9    7
 -0.02465092870067566    4    3    9    8
 -0.1255464257922065    4    3    9    9
 0.07363396834696417    4    3   10    1
 -0.0620481037530126    4    3   10    6
 -7.65438100497841e-05    4    3   10    7
 8.831436527398887e-05    4    3   10    8
 0.0002172751071166501    4    3   10    9
 -0.007700695541693748    4    3   10   10
 0.03610388565490932    4    3   11    1
 -0.02843652242786239    4    3   11    6
 4.375696100650694e-06    4    3   11    7
 3.051637481111173e-05    4    3   11    8
 -7.720315880155175e-06    4    3   11    9
 -0.09334365230853681    4    3   11   10
 0.01956359897543769    4    3   11   11
 0.02728581226260961    4    3   12    2
 -0.06124749514867839    4    3   12    3
 0.01130265191009264    4    3   12    4
 -0.005112184722679864    4    3   12    5
 0.003157461564598348    4    3   12   12
 0.06982431678138085    4    3   13    2
 -0.07004566309276962    4    3   13    3
 0.009651456301100094    4    3   13    4
 0.01094954465537123    4    3   13    5
 0.04612424566482888    4    3   13   12
 0.008258116607271517    4    3   13   13
 -0.008353231287846782    4    3   14    2
 -0.05200600489703418    4    3   14    3
 0.02147760597291831    4    3   14    4
 -0.03651243372822183    4    3   14    5
 -0.01615045596692508    4    3   14   12
 -0.06640222402626511    4    3   14   13
 0.05186877003321982    4    3   14   14
 -0.06292736092474797    4    3   15    2
 -0.02505156939312336    4    3   15    3
 0.02439058561985071    4    3   15    4
 -0.07627291914734241    4    3   15    5
 -0.03889252027880978    4    3   15   12
 0.06090558906471125    4    3   15   13
 0.01330916754870095    4    3   15   14
 -0.06232841142905588    4    3   15   15
 7.320366715176437e-05    4    3   16    1
 -0.006704600753491321    4    3   16    6
 -0.05587024004703889    4    3   16    7
 0.005068697144812204    4    3   16    8
 0.07265282325632107    4    3   16    9
 0.07422014071263343    4    3   16   10
 0.03648073262101734    4    3   16   11
 -6.928377194649182e-05    4    3   16   16
 0.1248730761009501    4    4    1    1
 0.1239046351964436    4    4    2    2
 0.002110938107889159    4    4    3    2
 0.1219719391536195    4    4    3    3
 0.001163884006499776    4    4    4    2
 -0.01958033364295365    4    4    4    3
 0.1378565316466118    4    4    4    4
 0.000305419763348975    4    4    5    2
 -0.004352328030075036    4    4    5    3
 -0.03267555046645544    4    4    5    4
 0.1165849658437306    4    4    5    5
 -0.005422547014723117    4    4    6    1
 0.1149098480378796    4    4    6    6
 0.001199981513524612    4    4    7    1
 -1.414475314599963e-05    4    4    7    6
 0.09416190602931819    4    4    7    7
 0.01833892981983559    4    4    8    1
 -0.0002021578101379525    4    4    8    6
 -0.01414755322641047    4    4    8    7
 0.1134519777043788    4    4    8    8
 0.02270390368274602    4    4    9    1
 -0.0002073523297466385    4    4    9    6
 -0.005573586720800969    4    4    9    7
 -0.007408613938858504    4    4    9    8
 0.1669706945430979    4    4    9    9
 -0.01977410833506455    4    4   10    1
 0.01651684591113787    4    4   10    6
 1.768163904629658e-05    4    4   10    7
 -2.713398698024265e-05    4    4   10    8
 -5.959721134747544e-05    4    4   10    9
 0.1031214494535876    4    4   10   10
 0.01806165828005502    4    4   11    1
 -0.01410500358991461    4    4   11    6
 -1.389712510978931e-05    4    4   11    7
 3.046660185796129e-05    4    4   11    8
 6.118614001891394e-05    4    4   11    9
 0.01479128489048353    4    4   11   10
 0.1573852456806171    4    4   11   11
 0.008870619234235695    4    4   12    2
 0.01130265191009263    4    4   12    3
 -0.002749682182016651    4    4   12    4
 0.01271202276200037    4    4   12    5
 0.1151771419061864    4    4   12   12
 -0.01072097761266264    4    4   13    2
 0.009651456301100101    4    4   13    3
 0.00565340961548278    4    4   13    4
 -0.03318944696586013    4    4   13    5
 -0.0004722512664637139    4    4   13   12
 0.1238534647247583    4    4   13   13
 0.01451998063250692    4    4   14    2
 0.02147760597291832    4    4   14    3
 -0.002983007038382688    4    4   14    4
 0.003901843626440798    4    4   14    5
 0.0156902669809244    4    4   14   12
 -0.001410942501594376    4    4   14   13
 0.1003512278797661    4    4   14   14
 0.01310684199793723    4    4   15    2
 0.0243905856198507    4    4   15    3
 -0.002285292196159417    4    4   15    4
 -0.004901016548015874    4    4   15    5
 0.01292480581585001    4    4   15   12
 0.002304713285381943    4    4   15   13
 -0.0149416677533128    4    4   15   14
 0.1603000936488824    4    4   15   15
 0.0001383536805715504    4    4   16    1
 -0.005384360470098724    4    4   16    6
 -0.001199744543738016    4    4   16    7
 -0.01832428032751454    4    4   16    8
 -0.02276998047025829    4    4   16    9
 -0.01993079803395908    4    4   16   10
 0.01822420846468737    4    4   16   11
 0.12512580245017    4    4   16   16
 -0.0005826536409239203    5    1    2    1
 -9.883851869665113e-05    5    1    3    1
 0.0004604427022023051    5    1    4    1
 0.124659785609583    5    1    5    1
 -0.05288097612277867    5    1    6    2
 -0.005199078009407524    5    1    6    3
 0.02782883981264988    5    1    6    4
 -0.03124834671769251    5    1    6    5
 0.0101612450694024    5    1    7    2
 0.002435799745095776    5    1    7    3
 -0.03588778197004052    5    1    7    4
 -0.0842225621455826    5    1    7    5
 -0.01494404383764332    5    1    8    2
 0.01787610209591228    5    1    8    3
 -0.05116796004857868    5    1    8    4
 -0.08156234340983323    5    1    8    5
 0.02804034430322478    5    1    9    2
 0.04548396314964723    5    1    9    3