 &FCI NORB=  16,NELEC= 8,MS2=2,
  ORBSYM=1,1,1,1,1,1,1,1,1,1,1,1,1,1,1,1
  ISYM=1,
 &END
 0.2249844909139501    1    1    1    1
 0.2297351588387832    1    1    2    2
 -0.0006930078478309919    1    1    3    2
 0.2252817716925266    1    1    3    3
 -0.0001138361954118186    1    1    4    2
 -0.000774410516329105    1    1    4    3
 0.2242428388789804    1    1    4    4
 -0.0003686075966567656    1    1    5    2
 -0.0009658313240291571    1    1    5    3
 0.0004324761227924928    1    1    5    4
 0.2206017597684322    1    1    5    5
 -9.953485396208342e-05    1    1    6    1
 0.2298157065616738    1    1    6    6
 0.002958776038819122    1    1    7    1
 -9.301423499658706e-06    1    1    7    6
 0.22984883813171    1    1    7    7
 -0.002941267955585216    1    1    8    1
 -8.108999012927665e-06    1    1    8    6
 3.712801633990251e-05    1    1    8    7
 0.2254397921873905    1    1    8    8
 0.00091537654169435    1    1    9    1
 -2.736232983842338e-06    1    1    9    6
 1.761002280236732e-05    1    1    9    7
 1.154689694207707e-05    1    1    9    8
 0.2231400073925552    1    1    9    9
 -0.0001582388122318503    1    1   10    1
 4.862401250161761e-07    1    1   10    6
 -3.118391072725399e-06    1    1   10    7
 -2.066475590775574e-06    1    1   10    8
 -9.684937914327118e-07    1    1   10    9
 0.2216323851293497    1    1   10   10
 -0.002239518196655621    1    1   11    1
 -6.392132981057619e-06    1    1   11    6
 2.944449730264698e-05    1    1   11    7
 4.396381868675137e-05    1    1   11    8
 9.122027199701223e-06    1    1   11    9
 -1.63230008390225e-06    1    1   11   10
 0.2194102635325955    1    1   11   11
 -0.0007775606883951187    1    1   12    2
 0.001944165386608493    1    1   12    3
 0.002272871911338317    1    1   12    4
 0.001392987485200384    1    1   12    5
 0.2296590229528159    1    1   12   12
 -0.0007781810491518729    1    1   13    2
 -0.003348686991806238    1    1   13    3
 0.001951146650947509    1    1   13    4
 0.001035570262541624    1    1   13    5
 -0.0001068282055367714    1    1   13   12
 0.2256022633674227    1    1   13   13
 -0.002472603520066797    1    1   14    2
 0.001287840978150013    1    1   14    3
 0.0007431540132153674    1    1   14    4
 0.001314958858183935    1    1   14    5
 -1.118965180237335e-05    1    1   14   12
 -6.138489576323035e-05    1    1   14   13
 0.2236487212940292    1    1   14   14
 0.001255196318389441    1    1   15    2
 -0.001500478812734797    1    1   15    3
 -0.0009655858501253355    1    1   15    4
 -0.001800574128984753    1    1   15    5
 -4.735919501757985e-05    1    1   15   12
 8.175358902219663e-05    1    1   15   13
 5.759947199297615e-05    1    1   15   14
 0.2202784632070076    1    1   15   15
 6.629636369142461e-06    1    1   16    1
 0.0005252402373241809    1    1   16    6
 -0.002912511505425301    1    1   16    7
 -0.0028918640340963    1    1   16    8
 -0.0009026304406804973    1    1   16    9
 0.0001605109734190312    1    1   16   10
 -0.002273380283341048    1    1   16   11
 0.2247785161507733    1    1   16   16
 0.2297351588387832    2    1    2    1
 -0.0006930078478309884    2    1    3    1
 -0.0001138361954118291    2    1    4    1
 -0.0003686075966567691    2    1    5    1
 0.05040541265109836    2    1    6    2
 0.1991520538695105    2    1    6    3
 -0.08265912455197076    2    1    6    4
 -0.03983219464713238    2    1    6    5
 0.1869309084228115    2    1    7    2
 -0.1030998064784094    2    1    7    3
 -0.1125325607498152    2    1    7    4
 -0.06591582826061511    2    1    7    5
 -0.1278963187108504    2    1    8    2
 -0.04212039330545162    2    1    8    3
 -0.07880792169418366    2    1    8    4
 0.008951103493887421    2    1    8    5
 0.06734289221181226    2    1    9    2
 0.02334863758324847    2    1    9    3
 0.09246339987589554    2    1    9    4
 0.02028503565629081    2    1    9    5
 -0.009990235863910533    2    1   10    2
 -0.0139401387071945    2    1   10    3
 0.01425494552321318    2    1   10    4
 -0.02613079538398391    2    1   10    5
 -0.05065125043308565    2    1   11    2
 -0.006438819110350051    2    1   11    3
 0.009598530078216636    2    1   11    4
 -0.04681153854993523    2    1   11    5
 -0.0007775606883951361    2    1   12    1
 0.05276975992284669    2    1   12    6
 -0.1934525488611277    2    1   12    7
 -0.1175561061730005    2    1   12    8
 -0.06733190410693307    2    1   12    9
 0.007447561204581884    2    1   12   10
 -0.04861782072811142    2    1   12   11
 -0.0007781810491518798    2    1   13    1
 -0.2129151036560022    2    1   13    6
 -0.03727190702418595    2    1   13    7
 0.01955471001988564    2    1   13    8
 -0.0156839644264328    2    1   13    9
 -0.01562284191317864    2    1   13   10
 0.008251231666137834    2    1   13   11
 -0.002472603520066802    2    1   14    1
 0.00588290685071078    2    1   14    6
 -0.1278437920408987    2    1   14    7
 0.09736408347872198    2    1   14    8
 0.09611104782373549    2    1   14    9
 0.006390799315893222    2    1   14   10
 -0.005477132797551288    2    1   14   11
 0.00125519631838944    2    1   15    1
 -0.01127910997264697    2    1   15    6
 0.0666233149626852    2    1   15    7
 0.000572992409758962    2    1   15    8
 -0.02211601998754276    2    1   15    9
 0.02908963191531303    2    1   15   10
 -0.05015900507627968    2    1   15   11
 0.002670984640866569    2    1   16    2
 0.006376095012597876    2    1   16    3
 0.003506932649795541    2    1   16    4
 0.001127109029610436    2    1   16    5
 0.2213249434576706    2    1   16   12
 -0.03563039553485858    2    1   16   13
 -0.01301044022344592    2    1   16   14
 0.008261561817897833    2    1   16   15
 0.2297351588387832    2    2    1    1
 0.4930609048036726    2    2    2    2
 -0.007061609383165052    2    2    3    2
 0.2302647502817966    2    2    3    3
 -0.03987775294720815    2    2    4    2
 0.002092594144158253    2    2    4    3
 0.1520434679965159    2    2    4    4
 -0.04932329052503236    2    2    5    2
 -0.001487270375882354    2    2    5    3
 0.04814466806425087    2    2    5    4
 0.04107539371319192    2    2    5    5
 0.05040541265109834    2    2    6    1
 0.4301662144107237    2    2    6    6
 0.1869309084228115    2    2    7    1
 -0.01238340982822275    2    2    7    6
 0.5269845621790282    2    2    7    7
 -0.1278963187108504    2    2    8    1
 -0.08016444776067851    2    2    8    6
 -0.007305265986164305    2    2    8    7
 0.2100958434585347    2    2    8    8
 0.06734289221181226    2    2    9    1
 0.001029565973291126    2    2    9    6
 -0.009169436090284989    2    2    9    7
 0.001134979612441978    2    2    9    8
 0.1273883708016496    2    2    9    9
 -0.009990235863910532    2    2   10    1
 2.313965460381818e-05    2    2   10    6
 4.158009123293126e-05    2    2   10    7
 -0.0001541300166563556    2    2   10    8
 -0.00214020035128746    2    2   10    9
 0.01066425076250899    2    2   10   10
 -0.05065125043308566    2    2   11    1
 -0.02841806054995208    2    2   11    6
 -0.001493435059553337    2    2   11    7
 0.04698130254262176    2    2   11    8
 0.0004635297634215161    2    2   11    9
 -0.0001308997145049519    2    2   11   10
 0.04392578170114646    2    2   11   11
 -0.08557688066065131    2    2   12    2
 0.1523073139844745    2    2   12    3
 0.08892320265882933    2    2   12    4
 0.04513417745092729    2    2   12    5
 0.4760569040672715    2    2   12   12
 -0.09452436639309537    2    2   13    2
 -0.172983695782805    2    2   13    3
 0.08058521041848064    2    2   13    4
 0.04701027754235001    2    2   13    5
 -0.05936511524650388    2    2   13   12
 0.2130699830234505    2    2   13   13
 -0.1281382524521401    2    2   14    2
 0.05383515686902479    2    2   14    3
 0.06634392528858701    2    2   14    4
 0.04866389165113406    2    2   14    5
 0.0180268504530354    2    2   14   12
 0.018374348088643    2    2   14   13
 0.1558087654622185    2    2   14   14
 0.05510060861088445    2    2   15    2
 -0.04228464429112963    2    2   15    3
 -0.03819032534624144    2    2   15    4
 -0.01186408992116966    2    2   15    5
 -0.03200343849360959    2    2   15   12
 -0.004026869912328504    2    2   15   13
 -0.04503306720511035    2    2   15   14
 0.03766983065188067    2    2   15   15
 0.002670984640866569    2    2   16    1
 0.08723082218322725    2    2   16    6
 -0.1708075102393809    2    2   16    7
 -0.1250840773528328    2    2   16    8
 -0.06677115783722549    2    2   16    9
 0.01006732144142115    2    2   16   10
 -0.05047560242107425    2    2   16   11
 0.220089817847623    2    2   16   16
 -0.0006930078478309919    3    1    2    1
 0.2252817716925266    3    1    3    1
 -0.0007744105163290946    3    1    4    1
 -0.0009658313240291528    3    1    5    1
 0.1991520538695104    3    1    6    2
 0.02220699953365664    3    1    6    3
 0.0476683342793293    3    1    6    4
 0.004949456968136258    3    1    6    5
 -0.1030998064784094    3    1    7    2
 -0.03151533579817354    3    1    7    3
 0.03696980453685761    3    1    7    4
 0.021395360269255    3    1    7    5
 -0.04212039330545161    3    1    8    2
 -0.06333052405468402    3    1    8    3
 0.1359325921314531    3    1    8    4
 0.02047460726506066    3    1    8    5
 0.02334863758324847    3    1    9    2
 -0.04611714835764629    3    1    9    3
 0.1351449110936504    3    1    9    4
 0.04132382931831903    3    1    9    5
 -0.0139401387071945    3    1   10    2
 -0.001995252616776045    3    1   10    3
 0.06337677963395498    3    1   10    4
 -0.1721647058722034    3    1   10    5
 -0.006438819110350053    3    1   11    2
 -0.01739197871650491    3    1   11    3
 -0.003385685776494863    3    1   11    4
 0.1238869853267771    3    1   11    5
 0.001944165386608486    3    1   12    1
 0.1660970176842699    3    1   12    6
 0.1348710428132247    3    1   12    7
 -0.0298426406964102    3    1   12    8
 -0.03535874369661927    3    1   12    9
 0.0113070814203272    3    1   12   10
 -0.004034844749400422    3    1   12   11
 -0.003348686991806241    3    1   13    1
 -0.01041376589882932    3    1   13    6
 -0.06702962637535542    3    1   13    7
 0.1258420723089734    3    1   13    8
 -0.1090321660209798    3    1   13    9
 -0.0005174439538575271    3    1   13   10
 0.04038115377364117    3    1   13   11
 0.001287840978150017    3    1   14    1
 -0.05968583823827388    3    1   14    6
 -0.005371102949842066    3    1   14    7
 -0.08678488589613836    3    1   14    8
 0.09968851238361955    3    1   14    9
 0.05994137174267721    3    1   14   10
 0.01697396768708658    3    1   14   11
 -0.001500478812734797    3    1   15    1
 0.0134145888773787    3    1   15    6
 -0.00462809065283914    3    1   15    7
 -0.001301782227077654    3    1   15    8
 -0.02426918006584813    3    1   15    9
 0.1701337952601384    3    1   15   10
 0.1203763765591137    3    1   15   11
 0.006376095012597859    3    1   16    2
 0.003397358294709801    3    1   16    3
 -0.003428319706864367    3    1   16    4
 -0.001217930471788659    3    1   16    5
 -0.03853825697739792    3    1   16   12
 -0.190939392574092    3    1   16   13
 -0.1038193274302138    3    1   16   14
 0.04195752419521324    3    1   16   15
 -0.0006930078478309919    3    2    1    1
 -0.007061609383165038    3    2    2    2
 0.2302647502817966    3    2    3    2
 0.04104182374559923    3    2    3    3
 0.002092594144158256    3    2    4    2
 0.009588354574357449    3    2    4    3
 -0.02283153514207599    3    2    4    4
 -0.001487270375882355    3    2    5    2
 0.002421846460545501    3    2    5    3
 -0.007918416839153553    3    2    5    4
 -0.008550515782979166    3    2    5    5
 0.1991520538695104    3    2    6    1
 0.09021154403137288    3    2    6    6
 -0.1030998064784094    3    2    7    1
 0.02585830471378003    3    2    7    6
 -0.1918489310950373    3    2    7    7
 -0.04212039330545162    3    2    8    1
 -0.2420751365692158    3    2    8    6
 -0.02569561655383647    3    2    8    7
 -0.02311118355005658    3    2    8    8
 0.02334863758324847    3    2    9    1
 0.006086699773922278    3    2    9    6
 -0.05398670760674236    3    2    9    7
 0.001751585469585511    3    2    9    8
 0.1254695142091599    3    2    9    9
 -0.0139401387071945    3    2   10    1
 -0.001519157203572638    3    2   10    6
 0.01480197270441959    3    2   10    7
 -0.0003337455074597546    3    2   10    8
 0.01188815782626772    3    2   10    9
 0.049583896141151    3    2   10   10
 -0.006438819110350056    3    2   11    1
 -0.08053726945036555    3    2   11    6
 -0.009014476569261515    3    2   11    7
 0.02608237014881082    3    2   11    8
 -0.0001459699002553863    3    2   11    9
 -0.0001326504591417645    3    2   11   10
 -0.05025788802796487    3    2   11   11
 0.1523073139844745    3    2   12    2
 0.08402790108773703    3    2   12    3
 -0.1297386413973623    3    2   12    4
 -0.07236234248308668    3    2   12    5
 -0.08427632456028469    3    2   12   12
 -0.172983695782805    3    2   13    2
 -0.01850421377891403    3    2   13    3
 -0.0523295224705387    3    2   13    4
 0.007468933296454054    3    2   13    5
 -0.170869767230471    3    2   13   12
 0.07055969849094677    3    2   13   13
 0.05383515686902478    3    2   14    2
 -0.02884622574170179    3    2   14    3
 0.09954592780430077    3    2   14    4
 0.00675720819717345    3    2   14    5
 -0.0962751942910563    3    2   14   12
 0.05445308612093994    3    2   14   13
 0.01428487022727751    3    2   14   14
 -0.04228464429112962    3    2   15    2
 -0.002033789957845801    3    2   15    3
 0.004387205400387466    3    2   15    4
 -0.04897474015635549    3    2   15    5
 0.0353518154052651    3    2   15   12
 -0.02429524659456744    3    2   15   13
 -0.008694902916560242    3    2   15   14
 -0.003166407595318989    3    2   15   15
 0.006376095012597862    3    2   16    1
 0.1691233942006188    3    2   16    6
 0.1389373790949839    3    2   16    7
 -0.04422222513225527    3    2   16    8
 -0.02310754274583765    3    2   16    9
 0.01410474390950291    3    2   16   10
 -0.007035058738905117    3    2   16   11
 0.0006460561392061318    3    2   16   16
 0.2252817716925266    3    3    1    1
 0.2302647502817966    3    3    2    2
 0.04104182374559922    3    3    3    2
 0.2600718340020698    3    3    3    3
 0.009588354574357447    3    3    4    2
 -0.06687667543595764    3    3    4    3
 0.1978121650169165    3    3    4    4
 0.002421846460545499    3    3    5    2
 -0.0249953593166536    3    3    5    3
 -0.00933168693469227    3    3    5    4
 0.2152898145621386    3    3    5    5
 0.02220699953365664    3    3    6    1
 0.3214961159677218    3    3    6    6
 -0.03151533579817354    3    3    7    1
 0.01729567767307203    3    3    7    6
 0.1582393948217706    3    3    7    7
 -0.06333052405468402    3    3    8    1
 -0.01866633826444885    3    3    8    6
 -0.0008335660440776729    3    3    8    7
 0.2154521773441075    3    3    8    8
 -0.04611714835764629    3    3    9    1
 -0.00334645688468559    3    3    9    6
 0.03181550911802745    3    3    9    7
 -0.0005982179577939506    3    3    9    8
 0.207909441155683    3    3    9    9
 -0.001995252616776045    3    3   10    1
 -0.0002820319387162242    3    3   10    6
 0.002707626178375096    3    3   10    7
 -9.892021853661362e-05    3    3   10    8
 0.01220761979244239    3    3   10    9
 0.3001438213784722    3    3   10   10
 -0.01739197871650491    3    3   11    1
 -0.007383136553009888    3    3   11    6
 -0.0007342084883423712    3    3   11    7
 0.03065603758452193    3    3   11    8
 -0.0007977946761431356    3    3   11    9
 5.595343709218785e-05    3    3   11   10
 0.1460609524035226    3    3   11   11
 0.08402790108773706    3    3   12    2
 0.01317249688232715    3    3   12    3
 0.02016775976998247    3    3   12    4
 -0.004341087671993779    3    3   12    5
 0.2157582300313643    3    3   12   12
 -0.01850421377891403    3    3   13    2
 -0.00932571080612165    3    3   13    3
 -0.003140481814178676    3    3   13    4
 0.007223741417520487    3    3   13    5
 -0.01503573785788675    3    3   13   12
 0.3119523687426466    3    3   13   13
 -0.02884622574170178    3    3   14    2
 -0.003961096200306021    3    3   14    3
 0.01207868156904927    3    3   14    4
 -0.02858530138365325    3    3   14    5
 -0.03030554782228245    3    3   14   12
 -0.001597783237066308    3    3   14   13
 0.1595473447115977    3    3   14   14
 -0.002033789957845798    3    3   15    2
 -0.003415483994792264    3    3   15    3
 0.03316788352005654    3    3   15    4
 -0.06878046017297944    3    3   15    5
 0.01025146758454396    3    3   15   12
 -0.00266711318243488    3    3   15   13
 0.02170507120002267    3    3   15   14
 0.2083534926514691    3    3   15   15
 0.003397358294709798    3    3   16    1
 0.01481514218862468    3    3   16    6
 0.03346983053728071    3    3   16    7
 -0.06316195342010067    3    3   16    8
 0.04701858057982482    3    3   16    9
 0.001983475967850894    3    3   16   10
 -0.01816889462469647    3    3   16   11
 0.2244663252361958    3    3   16   16
 -0.0001138361954118291    4    1    2    1
 -0.0007744105163290894    4    1    3    1
 0.2242428388789804    4    1    4    1
 0.0004324761227925032    4    1    5    1
 -0.08265912455197075    4    1    6    2
 0.0476683342793293    4    1    6    3
 -0.06561784612865787    4    1    6    4
 -0.02149109407326111    4    1    6    5
 -0.1125325607498152    4    1    7    2
 0.03696980453685761    4    1    7    3
 -0.07445572765997957    4    1    7    4
 0.01168114222509814    4    1    7    5
 -0.07880792169418367    4    1    8    2
 0.1359325921314531    4    1    8    3
 0.08462957274929617    4    1    8    4
 -0.0761107277613892    4    1    8    5
 0.09246339987589554    4    1    9    2
 0.1351449110936504    4    1    9    3
 0.07673069020382653    4    1    9    4
 0.08889520807989859    4    1    9    5
 0.01425494552321318    4    1   10    2
 0.06337677963395498    4    1   10    3
 -0.08717875797085739    4    1   10    4
 0.07382412402025149    4    1   10    5
 0.009598530078216636    4    1   11    2
 -0.003385685776494864    4    1   11    3
 -0.09984088138830381    4    1   11    4
 0.1011298885133694    4    1   11    5
 0.002272871911338306    4    1   12    1
 -0.1134022734953449    4    1   12    6
 0.0964147525835016    4    1   12    7
 -0.1050902626598582    4    1   12    8
 -0.07457914159251645    4    1   12    9
 -0.00149958384091641    4    1   12   10
 0.008192796754708374    4    1   12   11
 0.00195114665094751    4    1   13    1
 -0.06926552432406911    4    1   13    6
 0.02850800715901202    4    1   13    7
 -0.07873306200362234    4    1   13    8
 0.08097534777359115    4    1   13    9
 0.08499372310239324    4    1   13   10
 -0.02559309418981663    4    1   13   11
 0.0007431540132153951    4    1   14    1
 0.04828734757923899    4    1   14    6
 -0.04820639513616038    4    1   14    7
 -0.1343970456591067    4    1   14    8
 0.136670919125028    4    1   14    9
 -0.04969514509003866    4    1   14   10
 0.09564781040155318    4    1   14   11
 -0.0009655858501253442    4    1   15    1
 -0.006744833058047688    4    1   15    6
 -0.01930082466078121    4    1   15    7
 -0.05804465378357166    4    1   15    8
 -0.1095894089612336    4    1   15    9
 -0.0886304235207792    4    1   15   10
 0.106969562343726    4    1   15   11
 0.003506932649795527    4    1   16    2
 -0.00342831970686437    4    1   16    3
 0.0005890357682482196    4    1   16    4
 0.0007621886798633586    4    1   16    5
 0.005590979820159079    4    1   16   12
 0.1041329425317551    4    1   16   13
 -0.1986926749684191    4    1   16   14
 -0.01280505285807797    4    1   16   15
 -0.0001138361954118273    4    2    1    1
 -0.03987775294720815    4    2    2    2
 0.002092594144158263    4    2    3    2
 0.009588354574357449    4    2    3    3
 0.1520434679965159    4    2    4    2
 -0.02283153514207599    4    2    4    3
 0.05229015062023644    4    2    4    4
 0.04814466806425087    4    2    5    2
 -0.00791841683915356    4    2    5    3
 0.07464824822222131    4    2    5    4
 -0.02484663699170848    4    2    5    5
 -0.08265912455197075    4    2    6    1
 0.09040896538899473    4    2    6    6
 -0.1125325607498152    4    2    7    1
 0.02729237582883891    4    2    7    6
 -0.1369684733830304    4    2    7    7
 -0.07880792169418366    4    2    8    1
 0.1316371061080647    4    2    8    6
 0.01445711461060159    4    2    8    7
 -0.02559705020054914    4    2    8    8
 0.09246339987589552    4    2    9    1
 0.01136800059851706    4    2    9    6
 -0.1089992401655098    4    2    9    7
 0.003692569548929096    4    2    9    8
 0.1677194971214352    4    2    9    9
 0.01425494552321318    4    2   10    1
 0.0006368148944893012    4    2   10    6
 -0.006259021332041595    4    2   10    7
 -5.327834232880834e-05    4    2   10    8
 -0.03673868418195157    4    2   10    9
 -0.0380269154461394    4    2   10   10
 0.009598530078216636    4    2   11    1
 0.04032711676423832    4    2   11    6
 0.004262808220643736    4    2   11    7
 0.0694553185783445    4    2   11    8
 0.0002857142223380406    4    2   11    9
 0.0003126566697693883    4    2   11   10
 -0.05749430485540031    4    2   11   11
 0.08892320265882935    4    2   12    2
 -0.1297386413973623    4    2   12    3
 -0.0002820942500744179    4    2   12    4
 -0.02052302633924204    4    2   12    5
 -0.02644848715657928    4    2   12   12
 0.08058521041848064    4    2   13    2
 -0.0523295224705387    4    2   13    3
 0.07717418230865604    4    2   13    4
 0.003553299540049896    4    2   13    5
 0.08509897285180551    4    2   13   12
 0.02377539888038653    4    2   13   13
 0.06634392528858703    4    2   14    2
 0.09954592780430077    4    2   14    3
 0.1093173620200471    4    2   14    4
 -0.002110738632893254    4    2   14    5
 -0.1346264411767931    4    2   14   12
 -0.01969989277518639    4    2   14   13
 0.03665278188762358    4    2   14   14
 -0.03819032534624144    4    2   15    2
 0.004387205400387467    4    2   15    3
 -0.01436103618295318    4    2   15    4
 -0.01794688724006049    4    2   15    5
 0.038779261675603    4    2   15   12
 0.02436898924817851    4    2   15   13
 -0.06618329583979342    4    2   15   14
 -0.03113380886710741    4    2   15   15
 0.003506932649795546    4    2   16    1
 -0.1021933720840088    4    2   16    6
 0.08906447640285038    4    2   16    7
 -0.08122149423317108    4    2   16    8
 -0.0923238554642427    4    2   16    9
 -0.01455404143280296    4    2   16   10
 0.009760292933229508    4    2   16   11
 7.211757010242448e-05    4    2   16   16
 -0.0007744105163290972    4    3    1    1
 0.002092594144158263    4    3    2    2
 0.009588354574357447    4    3    3    2
 -0.06687667543595766    4    3    3    3
 -0.02283153514207599    4    3    4    2
 0.1978121650169165    4    3    4    3
 0.04854088410550247    4    3    4    4
 -0.00791841683915356    4    3    5    2
 -0.009331686934692275    4    3    5    3
 0.02489535525769495    4    3    5    4
 0.009936409368246328    4    3    5    5
 0.04766833427932932    4    3    6    1
 -0.1729585036844211    4    3    6    6
 0.03696980453685761    4    3    7    1
 -0.02928269835952626    4    3    7    6
 0.08353591329453437    4    3    7    7
 0.1359325921314531    4    3    8    1
 -0.08036252000589986    4    3    8    6
 -0.01119716662891039    4    3    8    7
 0.04620892748427026    4    3    8    8
 0.1351449110936504    4    3    9    1
 0.0119225662010445    4    3    9    6
 -0.111242922533512    4    3    9    7
 0.002204257320863017    4    3    9    8
 0.08880476099552267    4    3    9    9
 0.06337677963395498    4    3   10    1
 0.004953436729750296    4    3   10    6
 -0.04657738515080698    4    3   10    7
 0.0009723568360123853    4    3   10    8
 -0.1051058512253826    4    3   10    9
 -0.165403937649579    4    3   10   10
 -0.00338568577649485    4    3   11    1
 -0.02205180607327112    4    3   11    6
 -0.002595659818461812    4    3   11    7
 -0.1047708810529545    4    3   11    8
 0.002270911620175674    4    3   11    9
 0.0007784660482022826    4    3   11   10
 0.1198120085252506    4    3   11   11
 -0.1297386413973623    4    3   12    2
 0.02016775976998248    4    3   12    3
 -0.1171353229048401    4    3   12    4
 -0.01100743154232471    4    3   12    5
 -0.0007977066710163697    4    3   12   12
 -0.0523295224705387    4    3   13    2
 -0.003140481814178669    4    3   13    3
 0.01608926475026253    4    3   13    4
 -0.07105656107856809    4    3   13    5
 -0.04836148424805155    4    3   13   12
 -0.181332242242798    4    3   13   13
 0.09954592780430077    4    3   14    2
 0.01207868156904927    4    3   14    3
 -0.01092961398772732    4    3   14    4
 0.1015016575402657    4    3   14    5
 0.03201176446121101    4    3   14   12
 0.05669179706723328    4    3   14   13
 0.1880174453781799    4    3   14   14
 0.004387205400387465    4    3   15    2
 0.03316788352005656    4    3   15    3
 -0.1328290015335862    4    3   15    4
 0.1016966291055668    4    3   15    5
 0.004557130361128867    4    3   15   12
 0.05801633318691415    4    3   15   13
 -0.03404099511944238    4    3   15   14
 0.0004192913536851503    4    3   15   15
 -0.003428319706864374    4    3   16    1
 0.05302287764630555    4    3   16    6
 -0.02307910419497277    4    3   16    7
 0.1346601147417542    4    3   16    8
 -0.1375560289306926    4    3   16    9
 -0.06414094568300979    4    3   16   10
 -0.002788249316342848    4    3   16   11
 0.0007752415507508359    4    3   16   16
 0.2242428388789804    4    4    1    1
 0.1520434679965159    4    4    2    2
 -0.022831535142076    4    4    3    2
 0.1978121650169165    4    4    3    3
 0.05229015062023645    4    4    4    2
 0.0485408841055025    4    4    4    3
 0.4056346854179675    4    4    4    4
 0.07464824822222133    4    4    5    2
 0.02489535525769494    4    4    5    3
 -0.07071993039240797    4    4    5    4
 0.1349368853101763    4    4    5    5
 -0.06561784612865787    4    4    6    1
 0.1476960820296082    4    4    6    6
 -0.07445572765997957    4    4    7    1
 0.002418937187030119    4    4    7    6
 0.1431688107553246    4    4    7    7
 0.08462957274929618    4    4    8    1
 0.08840190265998815    4    4    8    6
 0.008302301170681047    4    4    8    7
 0.3407226541386682    4    4    8    8
 0.07673069020382653    4    4    9    1
 0.00909547218676058    4    4    9    6
 -0.08658468663593522    4    4    9    7
 0.001169913328983454    4    4    9    8
 0.3731816123320357    4    4    9    9
 -0.08717875797085739    4    4   10    1
 -0.006947909151499974    4    4   10    6
 0.06522555530547983    4    4   10    7
 -0.000971708959503351    4    4   10    8
 0.08887063026810238    4    4   10    9
 0.1569867968231879    4    4   10   10
 -0.09984088138830383    4    4   11    1
 0.03571367226648992    4    4   11    6
 0.003450285305265984    4    4   11    7
 -0.1591123962293784    4    4   11    8
 0.001902366273844776    4    4   11    9
 -0.001483849682384741    4    4   11   10
 0.1876091075921633    4    4   11   11
 -0.0002820942500744023    4    4   12    2
 -0.1171353229048401    4    4   12    3
 -0.06709882346740034    4    4   12    4
 0.0245917041485474    4    4   12    5
 0.1707844756725802    4    4   12   12
 0.07717418230865604    4    4   13    2
 0.01608926475026253    4    4   13    3
 -0.01286036703240022    4    4   13    4
 0.08390410742135998    4    4   13    5
 0.05679159371609262    4    4   13   12
 0.1646881346117927    4    4   13   13
 0.1093173620200471    4    4   14    2
 -0.01092961398772732    4    4   14    3
 -0.0258147452161057    4    4   14    4
 0.1192224776681385    4    4   14    5
 -0.02805424260489152    4    4   14   12
 -0.04626412814091607    4    4   14   13
 0.4142001205031644    4    4   14   14
 -0.01436103618295318    4    4   15    2
 -0.1328290015335862    4    4   15    3
 -0.06513546903005614    4    4   15    4
 -0.004695432943851276    4    4   15    5
 0.06320025048612547    4    4   15   12
 -0.07234140374930038    4    4   15   13
 0.04822196659155192    4    4   15   14
 0.1589500654708864    4    4   15   15
 0.0005890357682482334    4    4   16    1
 -0.07824188322992331    4    4   16    6
 0.05844051595499495    4    4   16    7
 0.08235731422289289    4    4   16    8
 -0.07870086242889582    4    4   16    9
 0.08867353659880259    4    4   16   10
 -0.1021882644286286    4    4   16   11
 0.225442097450032    4    4   16   16
 -0.0003686075966567691    5    1    2    1
 -0.0009658313240291493    5    1    3    1
 0.0004324761227924893    5    1    4    1
 0.2206017597684322    5    1    5    1
 -0.03983219464713238    5    1    6    2
 0.004949456968136258    5    1    6    3
 -0.02149109407326112    5    1    6    4
 -0.00177212956555076    5    1    6    5
 -0.06591582826061511    5    1    7    2
 0.02139536026925501    5    1    7    3
 0.01168114222509815    5    1    7    4
 -0.071470854338399    5    1    7    5
 0.008951103493887421    5    1    8    2
 0.02047460726506067    5    1    8    3
 -0.0761107277613892    5    1    8    4
 0.0930431226605391    5    1    8    5
 0.02028503565629081    5    1    9    2
 0.04132382931831902    5    1    9    3
 0.08889520807989858    5    1    9    4
 -0.1003863199467615    5    1    9    5
 -0.02613079538398391    5    1   10    2
 -0.1721647058722033    5    1   10    3