 &FCI NORB=  16,NELEC= 8,MS2=2,
  ORBSYM=1,1,1,1,1,1,1,1,1,1,1,1,1,1,1,1
  ISYM=1,
 &END
 0.6271734050903623    1    1    1    1
 -9.30322609175166e-08    1    1    2    1
 0.6555620305618777    1    1    2    2
 -1.390166365234508e-07    1    1    3    1
 0.002673015000470932    1    1    3    2
 0.647263869535432    1    1    3    3
 -3.08078029323533e-07    1    1    4    1
 -0.0004749957216164252    1    1    4    2
 -0.01137186786301321    1    1    4    3
 0.6019706139681062    1    1    4    4
 -2.659074015837204e-08    1    1    5    1
 -0.00999720436517448    1    1    5    2
 -0.00932430271342591    1    1    5    3
 0.002166145555634033    1    1    5    4
 0.6051524987746583    1    1    5    5
 0.008037612860519549    1    1    6    1
 -7.491953739509338e-08    1    1    6    2
 -2.311328494130618e-07    1    1    6    3
 8.107949300752842e-08    1    1    6    4
 8.463057101990024e-08    1    1    6    5
 0.6726185839557747    1    1    6    6
 0.002081651170449475    1    1    7    1
 2.705515617732601e-07    1    1    7    2
 2.376879113842812e-08    1    1    7    3
 -2.03592820349489e-07    1    1    7    4
 5.232628709730849e-08    1    1    7    5
 -2.047227383759666e-05    1    1    7    6
 0.6419326754569042    1    1    7    7
 -0.008061391844396599    1    1    8    1
 -1.394804640117496e-07    1    1    8    2
 1.749430660250882e-07    1    1    8    3
 -3.68252691654216e-08    1    1    8    4
 9.121918287369711e-08    1    1    8    5
 0.0001093915913855597    1    1    8    6
 -5.344003030458351e-05    1    1    8    7
 0.628142937011274    1    1    8    8
 0.02040719562955468    1    1    9    1
 -2.46242993105425e-07    1    1    9    2
 9.181712754403708e-08    1    1    9    3
 -4.291487865071275e-08    1    1    9    4
 6.643620126256522e-09    1    1    9    5
 0.0004638981046911368    1    1    9    6
 -0.0001208616688923897    1    1    9    7
 0.0006127471012702013    1    1    9    8
 0.6174249267828654    1    1    9    9
 -0.02802994477427337    1    1   10    1
 4.047244261604077e-08    1    1   10    2
 -7.549062496598966e-08    1    1   10    3
 -2.698906733863971e-07    1    1   10    4
 3.703320041598124e-08    1    1   10    5
 -0.000431861005528323    1    1   10    6
 9.634832627839183e-05    1    1   10    7
 -0.0005108711954738996    1    1   10    8
 -0.004443628438728878    1    1   10    9
 0.6171067598699813    1    1   10   10
 -0.0005081473164717659    1    1   11    1
 -4.554674649590029e-08    1    1   11    2
 -5.444269421395198e-08    1    1   11    3
 7.421602270241134e-08    1    1   11    4
 -2.611797289969742e-07    1    1   11    5
 -1.013751271916261e-05    1    1   11    6
 2.253561183113373e-06    1    1   11    7
 -1.04513656417741e-05    1    1   11    8
 -3.437120404990723e-05    1    1   11    9
 3.050509176225069e-05    1    1   11   10
 0.5728155814975765    1    1   11   11
 -2.715111036954293e-08    1    1   12    1
 0.01743122686396693    1    1   12    2
 0.01348702434304719    1    1   12    3
 0.007937849034427671    1    1   12    4
 -0.01296541633539253    1    1   12    5
 -1.79839539656652e-07    1    1   12    6
 -2.904364820244833e-07    1    1   12    7
 3.91585948091239e-08    1    1   12    8
 1.567410558202947e-08    1    1   12    9
 1.6512803623428e-07    1    1   12   10
 -2.962117028222633e-08    1    1   12   11
 0.6510380914142793    1    1   12   12
 -1.630847116284098e-07    1    1   13    1
 0.009923822089388763    1    1   13    2
 -0.007356228583950851    1    1   13    3
 0.01388683820954804    1    1   13    4
 0.007858006909778763    1    1   13    5
 1.371485781868789e-07    1    1   13    6
 -1.091664405621851e-07    1    1   13    7
 2.406656146233935e-07    1    1   13    8
 1.528450514006081e-08    1    1   13    9
 2.359057033301647e-07    1    1   13   10
 1.433773671446689e-08    1    1   13   11
 -7.46710325959998e-05    1    1   13   12
 0.6451911262498308    1    1   13   13
 -4.558535768306449e-08    1    1   14    1
 0.0134326917787987    1    1   14    2
 0.002183124290994529    1    1   14    3
 -0.01827877965951603    1    1   14    4
 0.01424687242433881    1    1   14    5
 3.230763665276748e-09    1    1   14    6
 1.68985833640784e-07    1    1   14    7
 6.172566639761623e-08    1    1   14    8
 2.2790135871531e-07    1    1   14    9
 -1.567219246045859e-08    1    1   14   10
 2.758545961656367e-07    1    1   14   11
 -0.002516563236529403    1    1   14   12
 -0.001470320629053121    1    1   14   13
 0.5974811177825974    1    1   14   14
 -7.819258197026314e-08    1    1   15    1
 -0.004052042759680621    1    1   15    2
 0.01568934927021112    1    1   15    3
 0.01201120289677032    1    1   15    4
 0.01817990924445429    1    1   15    5
 -2.022827368913902e-08    1    1   15    6
 -3.218147438414703e-08    1    1   15    7
 4.665095538892956e-08    1    1   15    8
 -1.514587361763162e-07    1    1   15    9
 -1.84866588402461e-08    1    1   15   10
 1.697915625971033e-07    1    1   15   11
 0.001010886230891774    1    1   15   12
 0.001528521362030537    1    1   15   13
 0.000736029170144824    1    1   15   14
 0.5963406517129392    1    1   15   15
 -0.002627344511398406    1    1   16    1
 -1.189088982105069e-07    1    1   16    2
 1.327837455230348e-07    1    1   16    3
 -2.128005987395154e-08    1    1   16    4
 8.477340505269604e-08    1    1   16    5
 0.007579001378577558    1    1   16    6
 -0.002265979450685139    1    1   16    7
 0.01015063038219316    1    1   16    8
 0.0264995310861053    1    1   16    9
 -0.02220364258154895    1    1   16   10
 -0.0005554950596656505    1    1   16   11
 -9.035282140957418e-08    1    1   16   12
 8.746370540151094e-09    1    1   16   13
 -2.497533252987516e-07    1    1   16   14
 2.465850282742758e-07    1    1   16   15
 0.6227851303355371    1    1   16   16
 -9.3032260858536e-08    2    1    1    1
 0.6555620305618777    2    1    2    1
 2.222197192825077e-07    2    1    2    2
 0.00267301500047096    2    1    3    1
 -5.278162256908267e-08    2    1    3    2
 -3.916638965292401e-07    2    1    3    3
 -0.0004749957216164148    2    1    4    1
 -3.098916851428102e-07    2    1    4    2
 3.535193529447932e-07    2    1    4    3
 3.766618983727654e-07    2    1    4    4
 -0.009997204365174484    2    1    5    1
 -1.058009141598898e-07    2    1    5    2
 5.094852472558881e-08    2    1    5    3
 -9.658195576633943e-08    2    1    5    4
 7.649620327107587e-08    2    1    5    5
 -7.49195373946597e-08    2    1    6    1
 0.364087877184194    2    1    6    2
 0.593617161892951    2    1    6    3
 -0.1041592576855118    2    1    6    4
 -0.2587289615354966    2    1    6    5
 -4.792074938377651e-07    2    1    6    6
 2.705515617732534e-07    2    1    7    1
 0.3194280020386456    2    1    7    2
 -0.3074546103745031    2    1    7    3
 -0.2441750953869471    2    1    7    4
 -0.1204165656147177    2    1    7    5
 -4.030688945354354e-07    2    1    7    6
 4.791423381685732e-07    2    1    7    7
 -1.394804640116954e-07    2    1    8    1
 -0.1488720191075641    2    1    8    2
 -0.006974156666534958    2    1    8    3
 0.2965721396333757    2    1    8    4
 -0.02671155386784413    2    1    8    5
 -1.085210823115835e-07    2    1    8    6
 -3.730962667975824e-07    2    1    8    7
 -4.271514185604305e-09    2    1    8    8
 -2.462429931088944e-07    2    1    9    1
 0.3808593488552367    2    1    9    2
 -0.01632921798827014    2    1    9    3
 0.3282760342660213    2    1    9    4
 -0.1084756902835766    2    1    9    5
 -8.450607357542855e-09    2    1    9    6
 3.404700652052256e-09    2    1    9    7
 -2.953905501619633e-08    2    1    9    8
 -1.901553839337572e-07    2    1    9    9
 4.047244259869354e-08    2    1   10    1
 -0.2490540136165607    2    1   10    2
 0.06345217372842755    2    1   10    3
 0.1143783595707925    2    1   10    4
 0.07696015870101872    2    1   10    5
 -6.315723014493554e-08    2    1   10    6
 -1.952009014866298e-08    2    1   10    7
 -4.930180099859283e-08    2    1   10    8
 -6.978118576375647e-08    2    1   10    9
 -1.611987036215234e-07    2    1   10   10
 -4.554674649590029e-08    2    1   11    1
 -0.02965538611817391    2    1   11    2
 0.0115901526588068    2    1   11    3
 0.1044557875111186    2    1   11    4
 -0.06163403978406112    2    1   11    5
 5.396099395961473e-08    2    1   11    6
 2.557649422353712e-07    2    1   11    7
 -2.294330648325033e-07    2    1   11    8
 -2.832017267223597e-08    2    1   11    9
 -2.622132402457789e-07    2    1   11   10
 2.23342944138949e-07    2    1   11   11
 0.01743122686396697    2    1   12    1
 -9.312962556337623e-08    2    1   12    2
 3.999237993096124e-08    2    1   12    3
 1.66544469801938e-07    2    1   12    4
 -2.744786269017613e-08    2    1   12    5
 0.5913267172427786    2    1   12    6
 -0.1700007755449082    2    1   12    7
 0.1906657280796109    2    1   12    8
 0.1243067513836667    2    1   12    9
 -0.2798067976114125    2    1   12   10
 -0.01568248813319359    2    1   12   11
 -2.836838335496927e-08    2    1   12   12
 0.009923822089388776    2    1   13    1
 -2.95412674268926e-07    2    1   13    2
 1.677289037307968e-07    2    1   13    3
 2.089729212772021e-07    2    1   13    4
 -3.825213051834257e-08    2    1   13    5
 -0.2660177480099052    2    1   13    6
 -0.4006995263173722    2    1   13    7
 0.04428351608391965    2    1   13    8
 0.1115185620795847    2    1   13    9
 -0.3048342378614622    2    1   13   10
 -0.008083643731165073    2    1   13   11
 -1.043364850158871e-07    2    1   13   12
 5.265307562369627e-08    2    1   13   13
 0.0134326917787987    2    1   14    1
 -5.78808153663124e-09    2    1   14    2
 -6.479340339433926e-08    2    1   14    3
 1.218779149200766e-07    2    1   14    4
 -1.763374820051844e-07    2    1   14    5
 0.05131305864510628    2    1   14    6
 0.1566572319687535    2    1   14    7
 -0.2390735592622986    2    1   14    8
 -0.08910759479642824    2    1   14    9
 -0.2569877358629573    2    1   14   10
 0.1282585750415567    2    1   14   11
 -2.232504863744142e-07    2    1   14   12
 -1.21333538491376e-07    2    1   14   13
 3.005468721117843e-08    2    1   14   14
 -0.004052042759680621    2    1   15    1
 -2.12012804599209e-07    2    1   15    2
 4.254397239804097e-08    2    1   15    3
 4.475221991725661e-08    2    1   15    4
 -1.895078092801344e-08    2    1   15    5
 0.03417538758368836    2    1   15    6
 -0.2639604215512252    2    1   15    7
 0.1333608770495923    2    1   15    8
 0.1265729480360036    2    1   15    9
 0.1442527132444909    2    1   15   10
 -0.01987201229489773    2    1   15   11
 3.902123307011592e-08    2    1   15   12
 3.533007409997862e-08    2    1   15   13
 6.972661541573312e-08    2    1   15   14
 -7.812105333075215e-08    2    1   15   15
 -1.189088981758124e-07    2    1   16    1
 0.09239583606995309    2    1   16    2
 0.01419551819670765    2    1   16    3
 0.02790974232083216    2    1   16    4
 -0.02456628404368314    2    1   16    5
 4.443684797602113e-08    2    1   16    6
 -4.570879627012836e-07    2    1   16    7
 1.732347002295336e-07    2    1   16    8
 -1.651388936083076e-07    2    1   16    9
 2.485666539299436e-07    2    1   16   10
 -1.085871652109494e-07    2    1   16   11
 0.4883766554417796    2    1   16   12
 0.3588041623611613    2    1   16   13
 -0.08838444776532667    2    1   16   14
 -0.06313950586846369    2    1   16   15
 -3.455217544370837e-08    2    1   16   16
 0.6555620305618777    2    2    1    1
 2.222197193380189e-07    2    2    2    1
 1.358180980859859    2    2    2    2
 -5.278162249974794e-08    2    2    3    1
 0.1346487407497175    2    2    3    2
 0.6786380235128329    2    2    3    3
 -3.098916851723005e-07    2    2    4    1
 -0.09648920708350697    2    2    4    2
 0.02715431712958987    2    2    4    3
 0.4648090267511479    2    2    4    4
 -1.058009141633592e-07    2    2    5    1
 -0.2891312557951957    2    2    5    2
 -0.1610355232402617    2    2    5    3
 0.01859142459128674    2    2    5    4
 0.1585707348655328    2    2    5    5
 0.3640878771841939    2    2    6    1
 9.046904273472692e-08    2    2    6    2
 -2.882215797808243e-07    2    2    6    3
 2.938207026368777e-07    2    2    6    4
 -2.17110655950821e-09    2    2    6    5
 1.458866853156767    2    2    6    6
 0.3194280020386456    2    2    7    1
 4.013472461270104e-07    2    2    7    2
 -5.250398861304923e-07    2    2    7    3
 -5.389647809559893e-07    2    2    7    4
 5.271625513740032e-08    2    2    7    5
 -0.00692802674575625    2    2    7    6
 0.8614017796488727    2    2    7    7
 -0.1488720191075641    2    2    8    1
 -3.24451494781983e-07    2    2    8    2
 1.58732567801526e-07    2    2    8    3
 2.908034904867225e-07    2    2    8    4
 9.73562205962156e-08    2    2    8    5
 0.01593661908705384    2    2    8    6
 -0.368703241303794    2    2    8    7
 0.3519563458143494    2    2    8    8
 0.3808593488552367    2    2    9    1
 -8.049697113217402e-08    2    2    9    2
 1.863996291089401e-07    2    2    9    3
 7.777231858692446e-08    2    2    9    4
 -1.302682924204934e-07    2    2    9    5
 0.2401181475001872    2    2    9    6
 -0.08387588690365326    2    2    9    7
 0.1768197584144546    2    2    9    8
 0.4902070734349487    2    2    9    9
 -0.2490540136165607    2    2   10    1
 -1.099753154515382e-07    2    2   10    2
 -9.205030486735292e-08    2    2   10    3
 -6.056962086400941e-09    2    2   10    4
 2.003647355097032e-07    2    2   10    5
 -0.2561423293266072    2    2   10    6
 -0.07055868451688474    2    2   10    7
 0.1346468458292622    2    2   10    8
 -0.1242261772703485    2    2   10    9
 0.5299877866367757    2    2   10   10
 -0.02965538611817391    2    2   11    1
 1.774845236118469e-07    2    2   11    2
 -6.558596406280089e-08    2    2   11    3
 -1.589751254700567e-07    2    2   11    4
 -1.346947873202831e-07    2    2   11    5
 0.0005791717395825134    2    2   11    6
 0.0001826984734851561    2    2   11    7
 0.0005705882009431956    2    2   11    8
 0.02274889406369905    2    2   11    9
 -0.02445916635233814    2    2   11   10
 0.05734590155237389    2    2   11   11
 -9.312962554949844e-08    2    2   12    1
 0.4282261789239727    2    2   12    2
 0.575805268638317    2    2   12    3
 0.08331709501710673    2    2   12    4
 -0.2686619891465743    2    2   12    5
 1.830273847949065e-07    2    2   12    6
 -6.501303244972382e-07    2    2   12    7
 1.194368777313485e-07    2    2   12    8
 -2.671655022407939e-08    2    2   12    9
 1.092185285386706e-07    2    2   12   10
 -7.444274833503725e-08    2    2   12   11
 1.118551691009249    2    2   12   12
 -2.954126742828037e-07    2    2   13    1
 -0.1263335073237593    2    2   13    2
 -0.07269255596337981    2    2   13    3
 0.2222580248241296    2    2   13    4
 0.1114985511486644    2    2   13    5
 1.825457312423746e-07    2    2   13    6
 -3.505635060638563e-07    2    2   13    7
 2.889541334373329e-07    2    2   13    8
 -1.498132339368581e-07    2    2   13    9
 2.23285549955576e-07    2    2   13   10
 -1.08452413159852e-07    2    2   13   11
 0.3019782765483332    2    2   13   12
 0.7193282621128362    2    2   13   13
 -5.788081545304857e-09    2    2   14    1
 0.1941861614604779    2    2   14    2
 -0.05004345067408432    2    2   14    3
 -0.2550680379184034    2    2   14    4
 -0.0668681703115996    2    2   14    5
 -1.731286999608582e-07    2    2   14    6
 2.042401788604427e-07    2    2   14    7
 -8.32879365723232e-08    2    2   14    8
 4.663982751743068e-08    2    2   14    9
 6.309320890046655e-08    2    2   14   10
 3.363034835890399e-07    2    2   14   11
 -0.04087389885914803    2    2   14   12
 -0.07553752871790387    2    2   14   13
 0.2953571911132361    2    2   14   14
 -2.120128046408424e-07    2    2   15    1
 -0.1306716878391858    2    2   15    2
 0.1652197748905654    2    2   15    3
 0.2476505542769812    2    2   15    4
 0.03013049007048918    2    2   15    5
 5.23294662938521e-08    2    2   15    6
 -1.658120073891972e-07    2    2   15    7
 6.854798084577197e-08    2    2   15    8
 -1.008067641784143e-07    2    2   15    9
 2.554211245286986e-08    2    2   15   10
 -1.809509963596927e-07    2    2   15   11
 0.05082371177927689    2    2   15   12
 0.07508093704420156    2    2   15   13
 -0.1862399117595233    2    2   15   14
 0.2065640897749527    2    2   15   15
 0.09239583606995311    2    2   16    1
 -3.078176528674599e-07    2    2   16    2
 3.128099119376255e-07    2    2   16    3
 1.876532906511935e-07    2    2   16    4
 -1.286706823033779e-08    2    2   16    5
 0.3369332684295667    2    2   16    6
 -0.3138189565230433    2    2   16    7
 0.1769141412509571    2    2   16    8
 0.206894435346013    2    2   16    9
 -0.3828352062453548    2    2   16   10
 -0.0320954314950917    2    2   16   11
 1.066485534021062e-07    2    2   16   12
 1.109168537132823e-08    2    2   16   13
 -2.828100637407988e-07    2    2   16   14
 8.208390713828045e-08    2    2   16   15
 0.5946722291943805    2    2   16   16
 -1.39016636509573e-07    3    1    1    1
 0.002673015000470918    3    1    2    1
 -5.278162249974794e-08    3    1    2    2
 0.647263869535432    3    1    3    1
 -3.916638965465873e-07    3    1    3    2
 3.056223554099758e-07    3    1    3    3
 -0.0113718678630132    3    1    4    1
 3.535193529450101e-07    3    1    4    2
 1.322298868916051e-07    3    1    4    3
 -9.81603210745835e-08    3    1    4    4
 -0.009324302713425906    3    1    5    1
 5.094852472211937e-08    3    1    5    2
 -3.777472192250389e-07    3    1    5    3
 9.884168032225221e-08    3    1    5    4
 -2.080805163113056e-08    3    1    5    5
 -2.311328494269396e-07    3    1    6    1
 0.5936171618929509    3    1    6    2
 -0.2142884426791875    3    1    6    3
 0.1469637050581875    3    1    6    4
 -0.04922603405021723    3    1    6    5
 1.647762403177109e-07    3    1    6    6
 2.376879114536744e-08    3    1    7    1
 -0.3074546103745031    3    1    7    2
 -0.302332037113853    3    1    7    3
 0.2370195399195458    3    1    7    4
 -0.1584345587666773    3    1    7    5
 -3.820820278822754e-07    3    1    7    6
 -5.129619144646357e-07    3    1    7    7
 1.749430660389592e-07    3    1    8    1
 -0.006974156666534951    3    1    8    2
 -0.2898548630895988    3    1    8    3
 0.01870635262838706    3    1    8    4
 -0.3803305586269434    3    1    8    5
 9.927056674013168e-08    3    1    8    6
 -1.141121883723526e-07    3    1    8    7
 -1.332492963568623e-07    3    1    8    8
 9.181712755769803e-08    3    1    9    1
 -0.01632921798827015    3    1    9    2
 0.1653039225602162    3    1    9    3
 -0.1168388999192152    3    1    9    4
 -0.05941530013340402    3    1    9    5
 -2.807296228587303e-07    3    1    9    6
 -1.63031390895433e-07    3    1    9    7
 -1.978753434747656e-07    3    1    9    8
 2.438089322018538e-07    3    1    9    9
 -7.549062495124451e-08    3    1   10    1
 0.06345217372842755    3    1   10    2
 -0.3755743826698066    3    1   10    3
 0.2169953697327847    3    1   10    4
 0.2478711885089539    3    1   10    5
 2.566480873483464e-07    3    1   10    6
 1.45426292937394e-07    3    1   10    7
 7.619319711670166e-08    3    1   10    8
 -2.603882338263544e-08    3    1   10    9
 8.229174556194374e-08    3    1   10   10
 -5.444269420701309e-08    3    1   11    1
 0.0115901526588068    3    1   11    2
 0.08019364384186371    3    1   11    3
 0.1205397656371134    3    1   11    4
 0.1609311950912222    3    1   11    5
 4.650481924377281e-08    3    1   11    6
 -2.013547824019688e-07    3    1   11    7
 -1.754140070826219e-07    3    1   11    8
 1.209068241315656e-08    3    1   11    9
 -3.637816907604841e-08    3    1   11   10
 -9.543548891086107e-08    3    1   11   11
 0.01348702434304721    3    1   12    1
 3.999237992402234e-08    3    1   12    2
 -4.509907558105606e-08    3    1   12    3
 -7.202435795190289e-08    3    1   12    4
 3.605321264189137e-08    3    1   12    5
 0.292797934926339    3    1   12    6
 0.4504899622905971    3    1   12    7
 0.09423860375171195    3    1   12    8
 0.2315195122738343    3    1   12    9
 -0.09849663575698261    3    1   12   10
 -0.002048457528395782    3    1   12   11
 2.664421246346467e-07    3    1   12   12
 -0.007356228583950864    3    1   13    1
 1.677289037654912e-07    3    1   13    2
 -3.652909320828879e-07    3    1   13    3
 -4.115149999876625e-08    3    1   13    4
 3.097537431507257e-09    3    1   13    5
 0.4741247190489553    3    1   13    6
 -0.09707895996320821    3    1   13    7
 -0.2527650571563426    3    1   13    8
 -0.3746056448536464    3    1   13    9
 0.1558604345972449    3    1   13   10
 -0.02542402703080194    3    1   13   11
 3.480682925124709e-08    3    1   13   12
 -3.301993200551909e-08    3    1   13   13
 0.002183124290994539    3    1   14    1
 -6.479340340127815e-08    3    1   14    2
 -1.476717342915738e-07    3    1   14    3
 2.659441772790566e-08    3    1   14    4
 4.162472877489165e-08    3    1   14    5
 0.03164633876695264    3    1   14    6
 -0.278154613239827    3    1   14    7
 -0.2269894319437156    3    1   14    8
 0.03736507098505975    3    1   14    9
 0.02607015734627694    3    1   14   10
 -0.0126835014539068    3    1   14   11
 -1.95875130763138e-07    3    1   14   12
 2.237126976209589e-07    3    1   14   13
 7.402194801813672e-08    3    1   14   14
 0.01568934927021111    3    1   15    1
 4.254397239804775e-08    3    1   15    2
 -4.275930133041347e-08    3    1   15    3
 6.557819652800302e-08    3    1   15    4
 6.349041245665903e-08    3    1   15    5
 -0.03479729535655041    3    1   15    6
 -0.08492611872318595    3    1   15    7
 -0.3081912850286371    3    1   15    8
 0.2053353172483421    3    1   15    9
 -0.09015397170042615    3    1   15   10
 -0.2314177474371214    3    1   15   11
 1.350733865205454e-08    3    1   15   12
 -2.017169623421103e-08    3    1   15   13
 1.01184890210392e-07    3    1   15   14
 -1.388541163037939e-07    3    1   15   15
 1.327837455126265e-07    3    1   16    1
 0.01419551819670768    3    1   16    2
 0.04974998510669697    3    1   16    3
 -0.023646236112467    3    1   16    4
 -0.03955201149199709    3    1   16    5
 -3.175337017079401e-07    3    1   16    6
 -7.481325934128274e-08    3    1   16    7
 -3.07675283474567e-07    3    1   16    8
 1.22347775475054e-07    3    1   16    9
 -2.034284198779678e-07    3    1   16   10
 -9.875729522785398e-09    3    1   16   11
 0.3343160272814371    3    1   16   12
 -0.4853738011937878    3    1   16   13
 0.03647078614229218    3    1   16   14
 -0.1886176499479269    3    1   16   15
 8.732403413954162e-08    3    1   16   16
 0.002673015000470946    3    2    1    1
 -5.278162249974794e-08    3    2    2    1
 0.1346487407497175    3    2    2    2
 -3.916638965396416e-07    3    2    3    1
 0.6786380235128329    3    2    3    2
 -0.08209848344141576    3    2    3    3
 3.53519352951949e-07    3    2    4    1
 0.02715431712958988    3    2    4    2
 0.04374998874197696    3    2    4    3
 -0.1034991973252318    3    2    4    4
 5.09485247185415e-08    3    2    5    1
 -0.1610355232402617    3    2    5    2
 0.06678935235048696    3    2    5    3
 -0.06734430360969398    3    2    5    4
 0.08879760652713878    3    2    5    5
 0.593617161892951    3    2    6    1
 -2.882215797530687e-07    3    2    6    2
 5.746683215700163e-07    3    2    6    3
 7.102811143126666e-08    3    2    6    4
 -1.530245798320087e-07    3    2    6    5
 0.184887944781976    3    2    6    6
 -0.3074546103745031    3    2    7    1
 -5.250398861304923e-07    3    2    7    2
 3.782012514991445e-08    3    2    7    3
 1.473007519690245e-07    3    2    7    4
 2.576621431159949e-07    3    2    7    5
 0.000103393409580673    3    2    7    6
 -0.15819283325218    3    2    7    7
 -0.00697415666653493    3    2    8    1
 1.587325677737705e-07    3    2    8    2
 2.185383779602614e-07    3    2    8    3
 -2.422148618234308e-07    3    2    8    4
 2.930724943504397e-08    3    2    8    5
 0.03374538970937627    3    2    8    6
 0.4037672230518373    3    2    8    7
 0.06156375744811097    3    2    8    8
 -0.01632921798827012    3    2    9    1
 1.863996291072054e-07    3    2    9    2
 -2.098877388510891e-07    3    2    9    3
 1.253864073973068e-07    3    2    9    4
 4.122118903409754e-08    3    2    9    5
 0.5439770530123081    3    2    9    6
 0.0653199090455471    3    2    9    7
 0.02348679617534655    3    2    9    8
 -0.04689883064082002    3    2    9    9
 0.06345217372842757    3    2   10    1
 -9.205030488291122e-08    3    2   10    2
 3.248869926200513e-07    3    2   10    3
 -8.512733334930557e-08    3    2   10    4
 -8.620867549945926e-08    3    2   10    5
 -0.5779775352483821    3    2   10    6
 0.05452265008368554    3    2   10    7
 0.033531777393437    3    2   10    8
 0.1040717971527589    3    2   10    9
 -0.05341082561467188    3    2   10   10
 0.0115901526588068    3    2   11    1
 -6.558596406258405e-08    3    2   11    2
 1.436675970692349e-07    3    2   11    3
 3.782545005253518e-08    3    2   11    4
 5.433506074020364e-08    3    2   11    5
 -0.008259204674452741    3    2   11    6
 -0.0002018556071319908    3    2   11    7
 -0.0003221566133854558    3    2   11    8
 -0.01060640468746096    3    2   11    9
 0.01155185109650824    3    2   11   10
 0.01131201785534335    3    2   11   11
 3.999237993790013e-08    3    2   12    1
 0.5758052686383173    3    2   12    2
 0.03015814037054965    3    2   12    3
 -0.0610340127351081    3    2   12    4
 -0.2607442087857317    3    2   12    5
 -1.683427201002062e-08    3    2   12    6
 -2.772781128032654e-07    3    2   12    7
 5.937687419458166e-08    3    2   12    8
 5.700908926905396e-08    3    2   12    9
 -1.24231211755092e-07    3    2   12   10
 7.369895100743434e-08    3    2   12   11
 0.4936094557749864    3    2   12   12
 1.677289037654912e-07    3    2   13    1
 -0.07269255596337978    3    2   13    2
 0.4861345976006831    3    2   13    3
 -0.3407594994188266    3    2   13    4
 -0.05532454394429944    3    2   13    5
 -1.677845175866939e-07    3    2   13    6
 1.688250786701255e-07    3    2   13    7
 -2.408313533857695e-07    3    2   13    8
 1.174289020217263e-07    3    2   13    9
 -2.402772916464834e-07    3    2   13   10
 1.423179403304078e-07    3    2   13   11
 -0.1247842537597576    3    2   13   12
 -0.5456820688627477    3    2   13   13
 -6.479340340127815e-08    3    2   14    1
 -0.05004345067408433    3    2   14    2
 0.1657260311242433    3    2   14    3
 0.01714134850685668    3    2   14    4
 0.04678380958127858    3    2   14    5
 -2.27395842247811e-07    3    2   14    6
 -1.422168280577424e-07    3    2   14    7
 1.471673836906453e-08    3    2   14    8
 -6.099774598573512e-08    3    2   14    9
 -2.406096365399103e-08    3    2   14   10
 -3.163358587316561e-08    3    2   14   11
 0.05706363742616223    3    2   14   12
 0.1602711452675651    3    2   14   13
 -0.00377405969207402    3    2   14   14
 4.254397241192553e-08    3    2   15    1
 0.1652197748905655    3    2   15    2
 -0.00902916941782825    3    2   15    3
 -0.06192478314248099    3    2   15    4
 0.02481392445718214    3    2   15    5
 4.243562941080439e-08    3    2   15    6
 1.060495055384455e-07    3    2   15    7
 6.442822099599984e-08    3    2   15    8
 6.55344365037733e-08    3    2   15    9
 -1.976455487577718e-08    3    2   15   10
 6.702838149660005e-08    3    2   15   11
 -0.159943666494132    3    2   15   12
 0.02077399641362288    3    2   15   13
 0.07798087549231603    3    2   15   14
 0.01799800626952305    3    2   15   15
 0.01419551819670767    3    2   16    1
 3.128099119376255e-07    3    2   16    2
 -2.432855676985749e-07    3    2   16    3
 -7.607684772035703e-08    3    2   16    4
 2.975630663507207e-08    3    2   16    5
 0.5494569429078566    3    2   16    6
 0.3004972422386852    3    2   16    7
 0.0001548407519178263    3    2   16    8
 -0.06307235987288146    3    2   16    9
 0.01942769645008594    3    2   16   10
 0.01263628065071564    3    2   16   11
 1.387806420423052e-07    3    2   16   12
 1.400537440987459e-07    3    2   16   13
 1.104259328681828e-08    3    2   16   14
 -3.98376857637292e-08    3    2   16   15
 -0.001934245578128303    3    2   16   16
 0.647263869535432    3    3    1    1
 -3.916638965396416e-07    3    3    2    1
 0.6786380235128328    3    3    2    2
 3.056223554082402e-07    3    3    3    1
 -0.08209848344141576    3    3    3    2
 1.254655877993738    3    3    3    3
 1.322298869019863e-07    3    3    4    1
 0.04374998874197696    3    3    4    2
 -0.3135612223218464    3    3    4    3
 0.2436803248157838    3    3    4    4
 -3.777472192111341e-07    3    3    5    1
 0.06678935235048696    3    3    5    2
 0.1211769995430481    3    3    5    3
 0.05147370875144727    3    3    5    4
 0.4235887666361126    3    3    5    5
 -0.2142884426791875    3    3    6    1
 5.746683215422607e-07    3    3    6    2
 -6.162187454626771e-07    3    3    6    3
 9.566468405031121e-08    3    3    6    4
 2.540394630230775e-07    3    3    6    5
 1.097999351741924    3    3    6    6
 -0.302332037113853    3    3    7    1
 3.782012514991446e-08    3    3    7    2
 2.69030375373192e-07    3    3    7    3
 -4.095489707282196e-07    3    3    7    4
 2.668963512886184e-07    3    3    7    5
 0.007624269613260528    3    3    7    6
 0.8808957726545542    3    3    7    7