 &FCI NORB=  16,NELEC=10,MS2=0,
  ORBSYM=1,1,1,1,1,1,1,1,1,1,1,1,1,1,1,1
  ISYM=1,
 &END
 0.4839150000000008    1    1    1    1
 0.4839150000000009    1    1    2    2
 0.4839150000000004    1    1    3    3
 0.4839150000000002    1    1    4    4
 0.4839150000000002    1    1    5    5
 0.4839150000000007    1    1    6    6
 0.483915    1    1    7    7
 0.4839150000000008    1    1    8    8
 0.4839150000000009    1    1    9    9
 0.4839150000000001    1    1   10   10
 0.483915    1    1   11   11
 0.4839150000000007    1    1   12   12
 0.4839150000000009    1    1   13   13
 0.4839150000000004    1    1   14   14
 0.4839150000000006    1    1   15   15
 0.4839150000000005    1    1   16   16
 0.4839150000000009    2    1    2    1
 -0.3051736709819976    2    1    6    2
 0.1535459300764132    2    1    6    3
 0.0012283508988698    2    1    6    4
 0.01013307312486348    2    1    6    5
 -0.03041088914771053    2    1    7    2
 0.1776444551242438    2    1    7    3
 0.2466320065261182    2    1    7    4
 -0.3110869849863718    2    1    7    5
 0.03497484764532421    2    1    8    2
 -0.3419810656769937    2    1    8    3
 0.1593283731442306    2    1    8    4
 -0.1638398178132023    2    1    8    5
 0.2870040795098414    2    1    9    2
 0.233080229455464    2    1    9    3
 -0.01411501811730103    2    1    9    4
 -0.02077372291037821    2    1    9    5
 -0.2493823515034576    2    1   10    2
 0.05237707766095184    2    1   10    3
 0.07048333660089992    2    1   10    4
 -0.09646279902362903    2    1   10    5
 -0.06271720757866803    2    1   11    2
 -0.002215524256360638    2    1   11    3
 -0.04356781844529235    2    1   11    4
 -0.05337243476657546    2    1   11    5
 0.1619558533720646    2    1   12    6
 0.1544134156192131    2    1   12    7
 -0.3228308084628332    2    1   12    8
 0.1908523646212499    2    1   12    9
 0.07250924918302923    2    1   12   10
 -0.02452492557328729    2    1   12   11
 0.2045050138461444    2    1   13    6
 0.04814204112077394    2    1   13    7
 0.2893832435489746    2    1   13    8
 0.2550455122685381    2    1   13    9
 0.2271519906429507    2    1   13   10
 -0.01109850260221931    2    1   13   11
 0.03658889549166008    2    1   14    6
 -0.3304138448852864    2    1   14    7
 -0.1488199334906528    2    1   14    8
 0.2134524179296366    2    1   14    9
 -0.07469393782811438    2    1   14   10
 0.001440082014307916    2    1   14   11
 0.07226832589018024    2    1   15    6
 0.2395691009909898    2    1   15    7
 -0.06303113552193484    2    1   15    8
 0.01089231404836256    2    1   15    9
 0.07565115721708895    2    1   15   10
 0.07112787678232853    2    1   15   11
 0.07436996699885835    2    1   16   12
 0.4699445807405745    2    1   16   13
 0.08724231792338624    2    1   16   14
 0.01355375333660836    2    1   16   15
 0.4839150000000009    2    2    1    1
 0.9876716073181191    2    2    2    2
 -0.02117980893001654    2    2    3    2
 0.473553443344463    2    2    3    3
 -0.04380643187272185    2    2    4    2
 -0.02063908961641026    2    2    4    3
 0.1927604543292654    2    2    4    4
 0.0456261089800578    2    2    5    2
 -0.01540147754290988    2    2    5    3
 -0.2211057104661001    2    2    5    4
 0.2816744950081538    2    2    5    5
 -0.3051736709819977    2    2    6    1
 0.395575602017912    2    2    6    6
 -0.03041088914771056    2    2    7    1
 0.1524753205680102    2    2    7    6
 0.7910741671039937    2    2    7    7
 0.03497484764532421    2    2    8    1
 -0.1400080998469025    2    2    8    6
 0.0549749463793416    2    2    8    7
 0.7945320868918593    2    2    8    8
 0.2870040795098414    2    2    9    1
 0.0819141653935451    2    2    9    6
 0.01960878566938739    2    2    9    7
 -0.1834539461207994    2    2    9    8
 0.5878758293367463    2    2    9    9
 -0.2493823515034576    2    2   10    1
 0.2979605107988041    2    2   10    6
 0.2670215982735817    2    2   10    7
 0.1014097372477456    2    2   10    8
 -0.003520455176147906    2    2   10    9
 0.3045282494782364    2    2   10   10
 -0.06271720757866803    2    2   11    1
 0.0354534190833884    2    2   11    6
 0.04053376759222204    2    2   11    7
 0.0007753015277349607    2    2   11    8
 -0.04798758413139011    2    2   11    9
 0.03838728113243394    2    2   11   10
 0.02990406517125393    2    2   11   11
 -0.0561678288659766    2    2   12    2
 0.4361022993945112    2    2   12    3
 -0.0199798965297346    2    2   12    4
 -0.006514691296165782    2    2   12    5
 0.4176508529841552    2    2   12   12
 -0.07543676313660966    2    2   13    2
 0.02553692731043412    2    2   13    3
 0.1469793853535276    2    2   13    4
 -0.1796476727966095    2    2   13    5
 0.09816051760298307    2    2   13   12
 0.9619456813019486    2    2   13   13
 0.1518365899340537    2    2   14    2
 0.09020506871557832    2    2   14    3
 -0.2345395934820992    2    2   14    4
 0.2691277596102291    2    2   14    5
 0.09242098845262353    2    2   14   12
 0.05572486281287523    2    2   14   13
 0.395552615047005    2    2   14   14
 -0.1069304955813209    2    2   15    2
 0.1685289124716604    2    2   15    3
 0.1058265294694022    2    2   15    4
 -0.1545469423017126    2    2   15    5
 0.1567902891976513    2    2   15   12
 0.0694644159249147    2    2   15   13
 -0.1429450241967809    2    2   15   14
 0.1605108506668928    2    2   15   15
 0.2321115931060993    2    2   16    6
 0.0176245885215663    2    2   16    7
 0.20281963997201    2    2   16    8
 0.3158006175376844    2    2   16    9
 0.220390445283865    2    2   16   10
 -0.01229536854114999    2    2   16   11
 0.4839150000000002    2    2   16   16
 0.4839150000000004    3    1    3    1
 0.1535459300764132    3    1    6    2
 0.1663629046947784    3    1    6    3
 0.09697555521383999    3    1    6    4
 0.2711431962808045    3    1    6    5
 0.1776444551242438    3    1    7    2
 -0.04736227755171914    3    1    7    3
 0.1166544408809844    3    1    7    4
 -0.07128464624308611    3    1    7    5
 -0.3419810656769936    3    1    8    2
 0.1131515544830291    3    1    8    3
 -0.07685692493431098    3    1    8    4
 0.2144689874127023    3    1    8    5
 0.2330802294554641    3    1    9    2
 0.2127234137276143    3    1    9    3
 -0.1526768101966518    3    1    9    4
 0.1534406499770741    3    1    9    5
 0.05237707766095182    3    1   10    2
 0.0794393801250014    3    1   10    3
 -0.3307536615492682    3    1   10    4
 -0.1161246650840836    3    1   10    5
 -0.002215524256360634    3    1   11    2
 0.01409549090241044    3    1   11    3
 0.2044544610468719    3    1   11    4
 0.1175694184350213    3    1   11    5
 -0.3793245805985109    3    1   12    6
 0.05525253127836964    3    1   12    7
 -0.02906884827728877    3    1   12    8
 0.3011140136358235    3    1   12    9
 -0.04886601616898507    3    1   12   10
 0.0101048142329157    3    1   12   11
 0.1081050898714366    3    1   13    6
 -0.2106785852902814    3    1   13    7
 -0.3601778517083928    3    1   13    8
 0.1534434528395316    3    1   13    9
 -0.02857110806651297    3    1   13   10
 -0.005975148667418649    3    1   13   11
 0.09537686315110022    3    1   14    6
 -0.03971225984054654    3    1   14    7
 -0.06986961954302534    3    1   14    8
 0.09326663403989464    3    1   14    9
 -0.1716238383436904    3    1   14   10
 -0.07057435730782866    3    1   14   11
 0.1268024721841575    3    1   15    6
 0.1051770409468143    3    1   15    7
 0.1129854083809076    3    1   15    8
 0.08716489227320694    3    1   15    9
 -0.3317026533684622    3    1   15   10
 -0.1875060701554028    3    1   15   11
 0.2938198034370283    3    1   16   12
 -0.1112583660656445    3    1   16   13
 0.3604259103994435    3    1   16   14
 -0.07455460700963799    3    1   16   15
 -0.02117980893001652    3    2    2    2
 0.473553443344463    3    2    3    2
 0.06642945046065465    3    2    3    3
 -0.02063908961641026    3    2    4    2
 0.01763532751259866    3    2    4    3
 -0.02773394198513581    3    2    4    4
 -0.0154014775429099    3    2    5    2
 -0.03090106185832171    3    2    5    3
 0.002996526285716923    3    2    5    4
 -0.01751569954550276    3    2    5    5
 0.1535459300764132    3    2    6    1
 -0.09323840170638438    3    2    6    6
 0.1776444551242438    3    2    7    1
 -0.1860908436487404    3    2    7    6
 0.1525853863718686    3    2    7    7
 -0.3419810656769936    3    2    8    1
 0.1055126788331156    3    2    8    6
 -0.05548042220495241    3    2    8    7
 -0.3918233473634161    3    2    8    8
 0.2330802294554641    3    2    9    1
 0.1090254822397354    3    2    9    6
 -0.02219163952623168    3    2    9    7
 -0.3848606117176915    3    2    9    8
 0.4812930011892675    3    2    9    9
 0.05237707766095182    3    2   10    1
 -0.1020379347138814    3    2   10    6
 -0.1335157816177862    3    2   10    7
 -0.01043857642029818    3    2   10    8
 -0.03354006575304321    3    2   10    9
 -0.08951919060679364    3    2   10   10
 -0.002215524256360634    3    2   11    1
 -0.02363120661851343    3    2   11    6
 -0.00807413069393838    3    2   11    7
 0.05320212097189882    3    2   11    8
 -0.04004993968939885    3    2   11    9
 -0.0106998094092454    3    2   11   10
 -0.05929744788454187    3    2   11   11
 0.4361022993945112    3    2   12    2
 0.06016435283427388    3    2   12    3
 0.000816036544317604    3    2   12    4
 -0.03792041412460525    3    2   12    5
 0.06614973364981591    3    2   12   12
 0.02553692731043412    3    2   13    2
 0.2823401253889155    3    2   13    3
 -0.2337872608714139    3    2   13    4
 0.2594125865086084    3    2   13    5
 0.2486775455782019    3    2   13   12
 -0.2311103607601104    3    2   13   13
 0.09020506871557832    3    2   14    2
 0.09173091535208006    3    2   14    3
 -0.06436601695839754    3    2   14    4
 0.0891735109290188    3    2   14    5
 0.1358964637438004    3    2   14   12
 0.31480762802937    3    2   14   13
 0.1882132492976463    3    2   14   14
 0.1685289124716604    3    2   15    2
 0.005937970503806048    3    2   15    3
 0.05715249683468442    3    2   15    4
 -0.02015216720696658    3    2   15    5
 -0.01665573043986271    3    2   15   12
 -0.04624807585520607    3    2   15   13
 -0.02132497549135753    3    2   15   14
 -0.02325262218735164    3    2   15   15
 0.06743455491689052    3    2   16    6
 -0.200318602308836    3    2   16    7
 -0.3636789312291328    3    2   16    8
 0.2145458751166739    3    2   16    9
 -0.07548780018046757    3    2   16   10
 -0.02222492705502501    3    2   16   11
 0.4839150000000004    3    3    1    1
 0.473553443344463    3    3    2    2
 0.06642945046065465    3    3    3    2
 0.6791633894932991    3    3    3    3
 0.01763532751259865    3    3    4    2
 -0.1115056933551656    3    3    4    3
 0.4203823469797073    3    3    4    4
 -0.03090106185832169    3    3    5    2
 0.2021524820688494    3    3    5    3
 0.08372252533203853    3    3    5    4
 0.3625608201825301    3    3    5    5
 0.1663629046947784    3    3    6    1
 0.650786441376735    3    3    6    6
 -0.04736227755171914    3    3    7    1
 -0.0471228485397784    3    3    7    6
 0.2326195285847411    3    3    7    7
 0.1131515544830291    3    3    8    1
 -0.006684360117432753    3    3    8    6
 -0.002955929648034997    3    3    8    7
 0.6816874990013003    3    3    8    8
 0.2127234137276143    3    3    9    1
 0.04193411983410495    3    3    9    6
 -0.01579630070156085    3    3    9    7
 -0.1481347414641893    3    3    9    8
 0.5722963980150986    3    3    9    9
 0.07943938012500143    3    3   10    1
 -0.1762409527160321    3    3   10    6
 -0.1023247758103219    3    3   10    7
 -0.04584031867586465    3    3   10    8
 -0.00461041336140564    3    3   10    9
 0.5675014904269541    3    3   10   10
 0.01409549090241044    3    3   11    1
 0.03869206861454599    3    3   11    6
 -0.001432188886868992    3    3   11    7
 -0.005253440183970353    3    3   11    8
 -0.06508127740091499    3    3   11    9
 -0.01299327132197541    3    3   11   10
 0.1985986425951702    3    3   11   11
 0.06016435283427392    3    3   12    2
 -0.0179722946316207    3    3   12    3
 -0.1154131518190741    3    3   12    4
 -0.1239031771054671    3    3   12    5
 0.6763061663838258    3    3   12   12
 0.2823401253889155    3    3   13    2
 0.03615372930590798    3    3   13    3
 -0.00332658311317012    3    3   13    4
 -0.0139633869154024    3    3   13    5
 -0.05647199717174746    3    3   13   12
 0.4599476963391484    3    3   13   13
 0.09173091535208004    3    3   14    2
 0.03110815792156576    3    3   14    3
 0.07869748915913846    3    3   14    4
 0.08193600718560921    3    3   14    5
 0.2176324995663215    3    3   14   12
 0.04831151864139049    3    3   14   13
 0.3897307524067395    3    3   14   14
 0.005937970503806053    3    3   15    2
 0.03812043054662177    3    3   15    3
 0.152815587271087    3    3   15    4
 0.1673114146279531    3    3   15    5
 -0.0556236709530492    3    3   15   12
 -0.03487844850733762    3    3   15   13
 0.1063044615586815    3    3   15   14
 0.4096753848702866    3    3   15   15
 -0.2036681754482196    3    3   16    6
 0.03620322305105728    3    3   16    7
 -0.004287132999769884    3    3   16    8
 0.2035864969002189    3    3   16    9
 -0.09982485701143463    3    3   16   10
 -0.01616731409803956    3    3   16   11
 0.4839149999999998    3    3   16   16
 0.483915    4    1    4    1
 1.356336917779366e-15    4    1    4    4
 0.001228350898869798    4    1    6    2
 0.09697555521383998    4    1    6    3
 -0.04613963264686907    4    1    6    4
 0.2213566008136924    4    1    6    5
 0.2466320065261182    4    1    7    2
 0.1166544408809844    4    1    7    3
 -0.03975629917159424    4    1    7    4
 -0.1305491610760038    4    1    7    5
 0.1593283731442306    4    1    8    2
 -0.076856924934311    4    1    8    3
 -0.09717560474375112    4    1    8    4
 0.007545197200838179    4    1    8    5
 -0.01411501811730104    4    1    9    2
 -0.1526768101966518    4    1    9    3
 -0.1975563436212306    4    1    9    4
 -0.05816406657436493    4    1    9    5
 0.07048333660089992    4    1   10    2
 -0.3307536615492681    4    1   10    3
 0.2767712467792582    4    1   10    4
 0.1265546768999262    4    1   10    5
 -0.04356781844529235    4    1   11    2
 0.2044544610468719    4    1   11    3
 0.4315184878167948    4    1   11    4
 -0.0729569424610497    4    1   11    5
 -0.1869877614203995    4    1   12    6
 -0.009230448411451538    4    1   12    7
 -0.1345425754376733    4    1   12    8
 -0.09877677902589968    4    1   12    9
 0.1463935197126648    4    1   12   10
 -0.04065687160339804    4    1   12   11
 -0.06617256514729802    4    1   13    6
 -0.2008240570214039    4    1   13    7
 0.1591257640038165    4    1   13    8
 -0.02000412437929914    4    1   13    9
 -0.1602709361548755    4    1   13   10
 -0.08022183564075669    4    1   13   11
 0.04374791432725728    4    1   14    6
 -0.2243033346120058    4    1   14    7
 0.01205228063957239    4    1   14    8
 -0.0474028559320359    4    1   14    9
 0.3344611843577487    4    1   14   10
 0.1654374774680022    4    1   14   11
 -0.006238899098648219    4    1   15    6
 -0.0216218729125326    4    1   15    7
 0.1056258787381223    4    1   15    8
 0.2422197645573818    4    1   15    9
 0.2122851585688983    4    1   15   10
 -0.4524662438535165    4    1   15   11
 -0.07484643163130966    4    1   16   12
 0.03077954108271414    4    1   16   13
 -0.02800251921601627    4    1   16   14
 -0.4762774586996052    4    1   16   15
 -0.04380643187272186    4    2    2    2
 -0.02063908961641026    4    2    3    2
 0.01763532751259866    4    2    3    3
 0.1927604543292654    4    2    4    2
 -0.0277339419851358    4    2    4    3
 -0.04514993196016144    4    2    4    4
 -0.2211057104661001    4    2    5    2
 0.002996526285716918    4    2    5    3
 -0.03679153653955487    4    2    5    4
 0.07132103632028465    4    2    5    5
 0.001228350898869792    4    2    6    1
 -0.05365587411055709    4    2    6    6
 0.2466320065261182    4    2    7    1
 -0.2295021204340547    4    2    7    6
 0.2105107188835778    4    2    7    7
 0.1593283731442306    4    2    8    1
 -0.08604890990667353    4    2    8    6
 -0.07564228056271093    4    2    8    7
 0.1987302384972595    4    2    8    8
 -0.01411501811730103    4    2    9    1
 -0.05018534807413006    4    2    9    6
 0.0003158820914653756    4    2    9    7
 0.09848547571079484    4    2    9    8
 -0.1386067442240391    4    2    9    9
 0.07048333660089992    4    2   10    1
 -0.1077896767406035    4    2   10    6
 -0.1586501095133424    4    2   10    7
 -0.03689837387967012    4    2   10    8
 -0.005438528729346992    4    2   10    9
 -0.1287723068117431    4    2   10   10
 -0.04356781844529235    4    2   11    1
 -0.01065581718952444    4    2   11    6
 -0.01329243857911339    4    2   11    7
 0.006349381591496978    4    2   11    8
 0.06765608217580359    4    2   11    9
 -0.0180425376276863    4    2   11   10
 -0.08820603223449859    4    2   11   11
 -0.0199798965297346    4    2   12    2
 0.000816036544317604    4    2   12    3
 -0.02161286446711106    4    2   12    4
 0.02711329830407256    4    2   12    5
 -0.002233236589256914    4    2   12   12
 0.1469793853535276    4    2   13    2
 -0.233787260871414    4    2   13    3
 -0.0656657792370335    4    2   13    4
 0.1154943754923873    4    2   13    5
 -0.2154926248730961    4    2   13   12
 -0.006830073880101012    4    2   13   13
 -0.2345395934820992    4    2   14    2
 -0.06436601695839753    4    2   14    3
 -0.07503609312389095    4    2   14    4
 0.05814735284054836    4    2   14    5
 -0.04624028346815429    4    2   14   12
 0.1044065037229878    4    2   14   13
 0.07566361281990916    4    2   14   14
 0.1058265294694022    4    2   15    2
 0.05715249683468444    4    2   15    3
 0.08833263496525826    4    2   15    4
 -0.02480365863921168    4    2   15    5
 -0.002379771138123953    4    2   15   12
 -0.1664645659329308    4    2   15   13
 -0.03132885425224724    4    2   15   14
 -0.06660030235055169    4    2   15   15
 -0.08528688525867593    4    2   16    6
 -0.2374889097980376    4    2   16    7
 0.1389861020224509    4    2   16    8
 -0.03636879147486383    4    2   16    9
 -0.06690172243325361    4    2   16   10
 -0.06700129975818471    4    2   16   11
 -0.02063908961641026    4    3    2    2
 0.01763532751259866    4    3    3    2
 -0.1115056933551656    4    3    3    3
 -0.02773394198513581    4    3    4    2
 0.4203823469797073    4    3    4    3
 0.05207836452132283    4    3    4    4
 0.002996526285716926    4    3    5    2
 0.0837225253320385    4    3    5    3
 -0.0872825842394286    4    3    5    4
 0.08006641845025361    4    3    5    5
 0.09697555521383998    4    3    6    1
 0.2872892081962166    4    3    6    6
 0.1166544408809844    4    3    7    1
 -0.05025761896322344    4    3    7    6
 0.1888533742551114    4    3    7    7
 -0.076856924934311    4    3    8    1
 0.1799510139533181    4    3    8    6
 -0.02119652446596864    4    3    8    7
 -0.1992238755629195    4    3    8    8
 -0.1526768101966518    4    3    9    1
 -0.002060581650652435    4    3    9    6
 0.02467221110804106    4    3    9    7
 0.06409456911495157    4    3    9    8
 -0.0633395186360671    4    3    9    9
 -0.3307536615492681    4    3   10    1
 0.00601996553592575    4    3   10    6
 0.2115061370109219    4    3   10    7
 -0.003248485696335348    4    3   10    8
 -0.01566845134736093    4    3   10    9
 -0.5356601673335972    4    3   10   10
 0.2044544610468719    4    3   11    1
 0.03005439911993001    4    3   11    6
 -0.002868440772109792    4    3   11    7
 -0.08965135742148247    4    3   11    8
 -0.1907384915246862    4    3   11    9
 0.01172843601422191    4    3   11   10
 0.3220809790812558    4    3   11   11
 0.0008160365443175936    4    3   12    2
 -0.1154131518190741    4    3   12    3
 -0.1044010498950692    4    3   12    4
 -0.2393683939091516    4    3   12    5
 0.03106147112194151    4    3   12   12
 -0.233787260871414    4    3   13    2
 -0.003326583113170113    4    3   13    3
 -0.004983113826769917    4    3   13    4
 0.0756564704411872    4    3   13    5
 0.04013211468840762    4    3   13   12
 -0.04875518725576725    4    3   13   13
 -0.06436601695839753    4    3   14    2
 0.07869748915913846    4    3   14    3
 -0.1909680776082879    4    3   14    4
 0.007798567054492536    4    3   14    5
 -0.1374451334388906    4    3   14   12
 0.06807338758396485    4    3   14   13
 -0.1474495547766003    4    3   14   14
 0.05715249683468442    4    3   15    2
 0.152815587271087    4    3   15    3
 -0.4359227652999611    4    3   15    4
 -0.03756492401588904    4    3   15    5
 -0.1732703454310684    4    3   15   12
 0.1087627506817836    4    3   15   13
 -0.3320600250899718    4    3   15   14
 0.1651432709104267    4    3   15   15
 -0.06477467181025551    4    3   16    6
 -0.1231651331997772    4    3   16    7
 -0.1255722331989741    4    3   16    8
 -0.1279992652963808    4    3   16    9
 0.3421395037665029    4    3   16   10
 0.1866876471271201    4    3   16   11
 0.483915    4    4    1    1
 0.1927604543292654    4    4    2    2
 -0.0277339419851358    4    4    3    2
 0.4203823469797073    4    4    3    3
 1.35308431126191e-15    4    4    4    1
 -0.04514993196016144    4    4    4    2
 0.0520783645213228    4    4    4    3
 1.134838332523999    4    4    4    4
 -0.03679153653955486    4    4    5    2
 -0.08728258423942861    4    4    5    3
 0.01917431099535161    4    4    5    4
 0.1876788661670272    4    4    5    5
 -0.04613963264686907    4    4    6    1
 0.2104283040382656    4    4    6    6
 -0.03975629917159426    4    4    7    1
 -0.02089391768581013    4    4    7    6
 0.3807574602245178    4    4    7    7
 -0.09717560474375112    4    4    8    1
 0.02767556708446519    4    4    8    6
 -0.005152746364405198    4    4    8    7
 0.1973845461708657    4    4    8    8
 -0.1975563436212306    4    4    9    1
 -0.004906372635339738    4    4    9    6
 0.009258181900712805    4    4    9    7
 0.1309403897416238    4    4    9    8
 0.2830982131436176    4    4    9    9
 0.2767712467792582    4    4   10    1
 -0.04175434998878595    4    4   10    6
 -0.201484194524182    4    4   10    7
 -0.01660497908656117    4    4   10    8
 0.02433430547053795    4    4   10    9
 0.8493876045091929    4    4   10   10
 0.4315184878167948    4    4   11    1
 2.067438017658296e-15    4    4   11    4
 0.01381486602867085    4    4   11    6
 -0.01108678735710377    4    4   11    7
 -0.2443247299633671    4    4   11    8
 -0.4617008982203433    4    4   11    9
 0.01175800144256001    4    4   11   10
 0.9824338719135387    4    4   11   11
 -0.02161286446711106    4    4   12    2
 -0.1044010498950692    4    4   12    3
 0.1334037501183598    4    4   12    4
 -0.02885393808404037    4    4   12    5
 0.1892774824698551    4    4   12   12
 -0.06566577923703348    4    4   13    2
 -0.004983113826769916    4    4   13    3
 -0.1641808862430811    4    4   13    4
 -0.001025928362148017    4    4   13    5
 -0.05726395670499631    4    4   13   12
 0.2138804956603648    4    4   13   13
 -0.07503609312389098    4    4   14    2
 -0.1909680776082879    4    4   14    3
 0.37000521602868    4    4   14    4
 0.1489360653588678    4    4   14    5
 0.08531151273639735    4    4   14   12
 -0.04695315293239647    4    4   14   13
 0.4022114173369    4    4   14   14
 0.08833263496525826    4    4   15    2
 -0.4359227652999611    4    4   15    3
 -0.3997850135808843    4    4   15    4
 0.09924555101061126    4    4   15    5
 1.058940261866592e-15    4    4   15    9
 0.09991426845201762    4    4   15   12
 0.008952750991734348    4    4   15   13
 0.007958595466335447    4    4   15   14
 1.130290604532881    4    4   15   15
 0.0283210909141513    4    4   16    6
 0.02291448484395512    4    4   16    7
 -0.07372548826558811    4    4   16    8
 -0.2216485185541033    4    4   16    9
 -0.2611253836169818    4    4   16   10
 0.4369375553620629    4    4   16   11
 0.483915    4    4   16   16
 0.4839150000000002    5    1    5    1
 0.01013307312486348    5    1    6    2
 0.2711431962808045    5    1    6    3
 0.2213566008136924    5    1    6    4
 0.1849503989340882    5    1    6    5
 -0.3110869849863718    5    1    7    2
 -0.07128464624308611    5    1    7    3
 -0.1305491610760039    5    1    7    4
 0.117529465871024    5    1    7    5
 -0.1638398178132023    5    1    8    2
 0.2144689874127023    5    1    8    3
 0.007545197200838174    5    1    8    4
 -0.05095079738460169    5    1    8    5
 -0.02077372291037822    5    1    9    2
 0.1534406499770741    5    1    9    3
 -0.05816406657436493    5    1    9    4
 -0.3021711496162249    5    1    9    5
 -0.09646279902362903    5    1   10    2
 -0.1161246650840836    5    1   10    3
 0.1265546768999262    5    1   10    4
 -0.1068282754008025    5    1   10    5
 -0.05337243476657546    5    1   11    2
 0.1175694184350213    5    1   11    3
 -0.0729569424610497    5    1   11    4
 -0.3828967711405375    5    1   11    5
 -0.2218711263469433    5    1   12    6
 0.003343080868414606    5    1   12    7
 -0.09144309778087188    5    1   12    8
 -0.1170093841951945    5    1   12    9
 0.201422860637347    5    1   12   10
 -0.2591245590913422    5    1   12   11
 0.1639142655557959    5    1   13    6
 0.295947807106742    5    1   13    7
 -0.1525770810906266    5    1   13    8
 -0.03357807939704781    5    1   13    9
 0.06368640582613458    5    1   13   10
 -0.04693802884070314    5    1   13   11
 -0.2058855464548401    5    1   14    6
 0.1408054356797955    5    1   14    7
 0.07015223480546509    5    1   14    8
 0.3173802111709162    5    1   14    9
 0.008821737305138357    5    1   14   10
 0.3134205743138584    5    1   14   11
 0.2306620030994317    5    1   15    6
 -0.130094598368993    5    1   15    7
 0.121476241546728    5    1   15    8
 0.06371631587912141    5    1   15    9
 0.09355163519431899    5    1   15   10
 0.1204969880039859    5    1   15   11
 0.3697441953754983    5    1   16   12
 0.0001186958578475762    5    1   16   13
 -0.3096312762281032    5    1   16   14
 -0.03989255449046834    5    1   16   15
 0.04562610898005781    5    2    2    2
 -0.01540147754290988    5    2    3    2
 -0.03090106185832171    5    2    3    3
 -0.2211057104661001    5    2    4    2
 0.002996526285716922    5    2    4    3
 -0.03679153653955487    5    2    4    4
 0.2816744950081538    5    2    5    2
 -0.01751569954550276    5    2    5    3
 0.07132103632028465    5    2    5    4
 0.02206648941781901    5    2    5    5
 0.01013307312486348    5    2    6    1
 0.09797381820847925    5    2    6    6
 -0.3110869849863718    5    2    7    1
 0.2930992071590919    5    2    7    6
 -0.2787459417047355    5    2    7    7
 -0.1638398178132023    5    2    8    1
 0.09868793729619783    5    2    8    6
 0.09350821774160226    5    2    8    7
 -0.2113059317735885    5    2    8    8
 -0.02077372291037823    5    2    9    1
 0.03547407075679256    5    2    9    6
 -0.003597061098157036    5    2    9    7
 -0.07470565674094662    5    2    9    8
 0.15383730769318    5    2    9    9
 -0.09646279902362903    5    2   10    1
 0.1310349749094827    5    2   10    6
 0.2075066470321516    5    2   10    7
 0.04174265846483031    5    2   10    8
 0.006753862143600632    5    2   10    9
 0.1502095880880928    5    2   10   10
 -0.05337243476657546    5    2   11    1
 -0.002106451043870697    5    2   11    6
 0.01377556134587098    5    2   11    7
 0.05139009817558735    5    2   11    8
 0.05756379222137861    5    2   11    9
 0.01553011825455775    5    2   11   10
 0.08803115948857321    5    2   11   11
 -0.006514691296165786    5    2   12    2
 -0.03792041412460525    5    2   12    3
 0.02711329830407257    5    2   12    4
 0.0176163404988133    5    2   12    5
 0.04180468674248926    5    2   12   12
 -0.1796476727966095    5    2   13    2
 0.2594125865086084    5    2   13    3
 0.1154943754923873    5    2   13    4
 -0.1412375830152728    5    2   13    5
 0.2497776378658575    5    2   13   12
 0.02086078699572204    5    2   13   13
 0.2691277596102289    5    2   14    2
 0.0891735109290188    5    2   14    3
 0.05814735284054836    5    2   14    4
 -0.1685314121622427    5    2   14    5
 -0.007751126764737486    5    2   14   12
 -0.1675146458009155    5    2   14   13
 -0.04953803203506074    5    2   14   14
 -0.1545469423017126    5    2   15    2
 -0.02015216720696659    5    2   15    3
 -0.02480365863921168    5    2   15    4
 0.0126598901122565    5    2   15    5
 -0.01844493815677152    5    2   15   12
 0.1931704536586394    5    2   15   13
 0.07574162088412861    5    2   15   14
 -0.01312744170314985    5    2   15   15
 0.0944266576859373    5    2   16    6
 0.3096589595981273    5    2   16    7
 -0.146175857292861    5    2   16    8
 0.008412138555396638    5    2   16    9
 0.09701393298724703    5    2   16   10
 -0.02552645268553353    5    2   16   11
 -0.01540147754290989    5    3    2    2
 -0.03090106185832171    5    3    3    2
 0.2021524820688494    5    3    3    3
 0.002996526285716917    5    3    4    2
 0.08372252533203851    5    3    4    3
 -0.08728258423942861    5    3    4    4
 -0.01751569954550275    5    3    5    2
 0.3625608201825301    5    3    5    3
 0.08006641845025363    5    3    5    4
 -0.09946842028651032    5    3    5    5