 &FCI NORB=  16,NELEC=10,MS2=0,
  ORBSYM=1,1,1,1,1,1,1,1,1,1,1,1,1,1,1,1
  ISYM=1,
 &END
 0.22488125    1    1    1    1
 0.2248812500000001    1    1    2    2
 0.2248812499999997    1    1    3    3
 0.2248812500000002    1    1    4    4
 0.2248812499999999    1    1    5    5
 0.22488125    1    1    6    6
 0.2248812500000001    1    1    7    7
 0.2248812500000001    1    1    8    8
 0.2248812500000002    1    1    9    9
 0.22488125    1    1   10   10
 0.2248812500000001    1    1   11   11
 0.22488125    1    1   12   12
 0.2248812499999998    1    1   13   13
 0.2248812500000002    1    1   14   14
 0.22488125    1    1   15   15
 0.2248812500000002    1    1   16   16
 0.2248812500000001    2    1    2    1
 0.2074049953622357    2    1    6    2
 0.02241894118900629    2    1    6    3
 -0.02939826491676484    2    1    6    4
 -0.1026021860468249    2    1    6    5
 0.04664939847605607    2    1    7    2
 -0.1180431946495958    2    1    7    3
 -0.04186343885361106    2    1    7    4
 -0.05400528596561507    2    1    7    5
 -0.06681260724355632    2    1    8    2
 0.1205523743839276    2    1    8    3
 -0.1055991980938464    2    1    8    4
 -0.01198225207511869    2    1    8    5
 -0.04234030466418    2    1    9    2
 0.01490949523661143    2    1    9    3
 -0.0313847186711169    2    1    9    4
 -0.03167865551337835    2    1    9    5
 -0.05696700745143122    2    1   10    2
 -0.04126821940654625    2    1   10    3
 -0.1412263910023369    2    1   10    4
 -0.04304830731681254    2    1   10    5
 -0.04763591055522592    2    1   11    2
 -0.05647842551684975    2    1   11    3
 -0.02879486366157165    2    1   11    4
 -0.09324565447286223    2    1   11    5
 -0.03565903318488717    2    1   12    6
 0.06428888369789942    2    1   12    7
 0.1124624817844739    2    1   12    8
 0.001931138102704464    2    1   12    9
 0.1129918429367771    2    1   12   10
 0.01308400918287299    2    1   12   11
 -0.09981045082679943    2    1   13    6
 0.06132101272573937    2    1   13    7
 0.08561725827657549    2    1   13    8
 -0.05570496492831935    2    1   13    9
 -0.06932983460868861    2    1   13   10
 0.006719945389473775    2    1   13   11
 -0.1333301854671084    2    1   14    6
 -0.1584564193896947    2    1   14    7
 0.04611734292918517    2    1   14    8
 0.04034044153579006    2    1   14    9
 0.04348413002007351    2    1   14   10
 -0.09772791880355607    2    1   14   11
 0.05984665032892282    2    1   15    6
 0.005348373383192212    2    1   15    7
 0.05271394711328102    2    1   15    8
 -0.03063727477590969    2    1   15    9
 0.1183721499887349    2    1   15   10
 0.1108689968577361    2    1   15   11
 0.02287485430425022    2    1   16   12
 0.07038793854109722    2    1   16   13
 -0.1648304436761591    2    1   16   14
 0.1338834589767428    2    1   16   15
 0.2248812500000001    2    2    1    1
 0.4781884700440059    2    2    2    2
 -0.02001592598449926    2    2    3    2
 0.1515682220139778    2    2    3    3
 0.0433600376947177    2    2    4    2
 -0.006497198122359157    2    2    4    3
 0.1579813096277628    2    2    4    4
 -0.0656501851471518    2    2    5    2
 0.04091411422359032    2    2    5    3
 0.07248833828337196    2    2    5    4
 0.1117869983142537    2    2    5    5
 0.2074049953622357    2    2    6    1
 0.3891082971175427    2    2    6    6
 0.04664939847605608    2    2    7    1
 0.1193289185057743    2    2    7    6
 0.239281174925074    2    2    7    7
 -0.06681260724355634    2    2    8    1
 -0.09947763403817661    2    2    8    6
 -0.03034817520670367    2    2    8    7
 0.2453528638878088    2    2    8    8
 -0.04234030466418    2    2    9    1
 -0.02666047832957723    2    2    9    6
 -0.04695021371883968    2    2    9    7
 0.01784622090861032    2    2    9    8
 0.04302848045135228    2    2    9    9
 -0.05696700745143122    2    2   10    1
 2.366276367561865e-05    2    2   10    6
 0.03204587776436105    2    2   10    7
 0.1301891121659134    2    2   10    8
 0.04358105870296571    2    2   10    9
 0.2677990012196284    2    2   10   10
 -0.0476359105552259    2    2   11    1
 0.07913309998371523    2    2   11    6
 0.1245890110172254    2    2   11    7
 0.01741484659051903    2    2   11    8
 -0.0118093829447092    2    2   11    9
 0.1023285987471008    2    2   11   10
 0.1647176823985943    2    2   11   11
 -0.08472283175906113    2    2   12    2
 -0.0009063800604796495    2    2   12    3
 -0.13302033236116    2    2   12    4
 -0.03248874254429928    2    2   12    5
 0.14015296137088    2    2   12   12
 -0.07814320807144408    2    2   13    2
 0.01110028019985659    2    2   13    3
 0.0118819104007694    2    2   13    4
 0.04458267979872883    2    2   13    5
 0.04841173235130826    2    2   13   12
 0.1510219115795259    2    2   13   13
 -0.1674496740515514    2    2   14    2
 0.11384496282724    2    2   14    3
 0.00484759955266161    2    2   14    4
 0.1229436323174997    2    2   14    5
 -0.001351737363318149    2    2   14   12
 -0.04438446321729729    2    2   14   13
 0.379089971193256    2    2   14   14
 -0.007058947020665918    2    2   15    2
 -0.02018109379703427    2    2   15    3
 -0.1178311951911801    2    2   15    4
 -0.09571315784328328    2    2   15    5
 0.09768358519482714    2    2   15   12
 0.01127978063780911    2    2   15   13
 -0.157360826682766    2    2   15   14
 0.2292601558563384    2    2   15   15
 0.09848843828858637    2    2   16    6
 0.145060378145218    2    2   16    7
 0.03581876514295015    2    2   16    8
 -0.06504739875878446    2    2   16    9
 0.02839388455094325    2    2   16   10
 0.1410716051933214    2    2   16   11
 0.2248812500000002    2    2   16   16
 0.2248812499999997    3    1    3    1
 0.02241894118900629    3    1    6    2
 -0.0980465117934594    3    1    6    3
 -0.05936989169249182    3    1    6    4
 0.04456477063611941    3    1    6    5
 -0.1180431946495958    3    1    7    2
 0.1176766748473827    3    1    7    3
 0.1171869988310126    3    1    7    4
 0.02917283496642932    3    1    7    5
 0.1205523743839276    3    1    8    2
 0.1247151553273294    3    1    8    3
 -0.03306877956286616    3    1    8    4
 0.1060471443990166    3    1    8    5
 0.01490949523661143    3    1    9    2
 -0.09195665024963758    3    1    9    3
 0.03186959102501302    3    1    9    4
 -0.00406935971893824    3    1    9    5
 -0.04126821940654625    3    1   10    2
 0.03929161179312034    3    1   10    3
 -0.05795578202197964    3    1   10    4
 -0.1340203434828844    3    1   10    5
 -0.05647842551684974    3    1   11    2
 -0.1057282717714976    3    1   11    3
 -0.02569910815598539    3    1   11    4
 0.04460466283120985    3    1   11    5
 0.06191083687730526    3    1   12    6
 -0.145310738574429    3    1   12    7
 0.07963260005317963    3    1   12    8
 0.02963553010536313    3    1   12    9
 -0.03743488409274291    3    1   12   10
 0.03827155742170916    3    1   12   11
 -0.005249158106632743    3    1   13    6
 -0.04879405694080785    3    1   13    7
 0.1315395927996444    3    1   13    8
 -0.09050864291557061    3    1   13    9
 -0.1373196974437809    3    1   13   10
 -0.06286869039448756    3    1   13   11
 0.1479530967848719    3    1   14    6
 -0.01375967815165249    3    1   14    7
 0.02520438274185558    3    1   14    8
 0.04886215340916011    3    1   14    9
 0.02355638990412925    3    1   14   10
 -0.01368742450253545    3    1   14   11
 -0.02892061288818537    3    1   15    6
 0.15296131127018    3    1   15    7
 0.09471275514379573    3    1   15    8
 0.05570118571591536    3    1   15    9
 -0.001194620235642388    3    1   15   10
 -0.06177554141866324    3    1   15   11
 0.09108354249109114    3    1   16   12
 0.1753313815499323    3    1   16   13
 0.0002791159130325852    3    1   16   14
 -0.1073973632215205    3    1   16   15
 -0.02001592598449927    3    2    2    2
 0.1515682220139778    3    2    3    2
 0.008557950949859347    3    2    3    3
 -0.00649719812235915    3    2    4    2
 -0.06595623738380378    3    2    4    3
 0.03671372223166838    3    2    4    4
 0.04091411422359032    3    2    5    2
 0.05910045013773613    3    2    5    3
 0.01796790271060449    3    2    5    4
 -0.02525574719702828    3    2    5    5
 0.02241894118900629    3    2    6    1
 -0.1045731694547392    3    2    6    6
 -0.1180431946495958    3    2    7    1
 -0.03220478827848536    3    2    7    6
 -0.1565914247420203    3    2    7    7
 0.1205523743839276    3    2    8    1
 0.0188087304379078    3    2    8    6
 -0.01664175288182699    3    2    8    7
 0.1581920417696239    3    2    8    8
 0.01490949523661143    3    2    9    1
 0.02359917107129606    3    2    9    6
 -0.002905914211481525    3    2    9    7
 -0.06503420133259585    3    2    9    8
 0.01107248060088688    3    2    9    9
 -0.04126821940654625    3    2   10    1
 0.08717837506616084    3    2   10    6
 -0.05098464178648127    3    2   10    7
 0.001228706553713287    3    2   10    8
 0.07542473801510134    3    2   10    9
 0.09274717966025826    3    2   10   10
 -0.05647842551684974    3    2   11    1
 -0.06611105638004422    3    2   11    6
 0.03982772870084572    3    2   11    7
 -0.05229059019812741    3    2   11    8
 0.02278974105530602    3    2   11    9
 0.04475794126381451    3    2   11   10
 -0.0008471078340094814    3    2   11   11
 -0.0009063800604796374    3    2   12    2
 0.1243590682806649    3    2   12    3
 -0.003963585881389467    3    2   12    4
 -0.01047121035702594    3    2   12    5
 -0.01859738860258225    3    2   12   12
 0.01110028019985659    3    2   13    2
 0.1305923099508322    3    2   13    3
 0.05492043729637289    3    2   13    4
 0.072208671795341    3    2   13    5
 -0.002931109546495638    3    2   13   12
 0.1568594632728024    3    2   13   13
 0.11384496282724    3    2   14    2
 0.0378380157889256    3    2   14    3
 -0.04847572148753004    3    2   14    4
 -0.07125929021709289    3    2   14    5
 -0.003302069332497946    3    2   14   12
 -0.07951063084585878    3    2   14   13
 -0.05379220662340179    3    2   14   14
 -0.02018109379703428    3    2   15    2
 -0.012974857240038    3    2   15    3
 -0.06828269364654563    3    2   15    4
 -0.01058818760787483    3    2   15    5
 0.08103938455458458    3    2   15   12
 0.04171424387168592    3    2   15   13
 0.04411574166085767    3    2   15   14
 -0.08446986804681844    3    2   15   15
 -0.1210080534517188    3    2   16    6
 0.07109764928020668    3    2   16    7
 0.08718559940293973    3    2   16    8
 -0.02796725549258384    3    2   16    9
 -0.06476626233752499    3    2   16   10
 -0.04253071399853455    3    2   16   11
 0.2248812499999997    3    3    1    1
 0.1515682220139778    3    3    2    2
 0.008557950949859333    3    3    3    2
 0.4925474604134714    3    3    3    3
 -0.06595623738380378    3    3    4    2
 0.05779198813442485    3    3    4    3
 0.1039931456191622    3    3    4    4
 0.05910045013773613    3    3    5    2
 0.01192444215125508    3    3    5    3
 0.01670786985934466    3    3    5    4
 0.1514161719533873    3    3    5    5
 -0.09804651179345937    3    3    6    1
 0.1877148775278858    3    3    6    6
 0.1176766748473827    3    3    7    1
 -0.1558208753837942    3    3    7    6
 0.3977583939405175    3    3    7    7
 0.1247151553273293    3    3    8    1
 0.01064380207747094    3    3    8    6
 -0.01861025357044944    3    3    8    7
 0.3365156869073716    3    3    8    8
 -0.09195665024963755    3    3    9    1
 0.06761385740194933    3    3    9    6
 -0.004479734540003371    3    3    9    7
 -0.06312134899369178    3    3    9    8
 0.1079270072847415    3    3    9    9
 0.03929161179312035    3    3   10    1
 -0.02395208512927027    3    3   10    6
 0.04636641751924109    3    3   10    7
 -0.1464510974156395    3    3   10    8
 0.03056558780685592    3    3   10    9
 0.2018026060565256    3    3   10   10
 -0.1057282717714976    3    3   11    1
 0.06703348146102232    3    3   11    6
 -0.08555536601184467    3    3   11    7
 -0.1148715777514895    3    3   11    8
 0.0471111318008396    3    3   11    9
 0.002845056018862242    3    3   11   10
 0.1175689282829568    3    3   11   11
 0.1243590682806649    3    3   12    2
 -0.09552099467026834    3    3   12    3
 -0.09430322276909624    3    3   12    4
 0.06033519554638762    3    3   12    5
 0.1926797919835315    3    3   12   12
 0.1305923099508322    3    3   13    2
 0.09228015843203509    3    3   13    3
 -0.01363641766930316    3    3   13    4
 0.1256650707903484    3    3   13    5
 0.1479098700220849    3    3   13   12
 0.3622051970276008    3    3   13   13
 0.03783801578892561    3    3   14    2
 -0.06715808187008637    3    3   14    3
 -0.04751908149815733    3    3   14    4
 0.02178280189802617    3    3   14    5
 0.05884985285237834    3    3   14   12
 -0.01573105687133368    3    3   14   13
 0.1149253018505093    3    3   14   14
 -0.012974857240038    3    3   15    2
 0.1512355872108493    3    3   15    3
 0.08867809529199119    3    3   15    4
 0.04622639676605522    3    3   15    5
 -0.1197348438406046    3    3   15   12
 -0.06526596297994594    3    3   15   13
 -0.002166945584092361    3    3   15   14
 0.2297147091383573    3    3   15   15
 0.03497850456273974    3    3   16    6
 -0.1699653852718607    3    3   16    7
 0.08960894971505777    3    3   16    8
 -0.08510366519502474    3    3   16    9
 -0.1216254360739828    3    3   16   10
 -0.004029839902263243    3    3   16   11
 0.2248812499999999    3    3   16   16
 0.2248812500000001    4    1    4    1
 -0.02939826491676484    4    1    6    2
 -0.05936989169249182    4    1    6    3
 -0.02458712970861369    4    1    6    4
 0.05437249594290423    4    1    6    5
 -0.04186343885361105    4    1    7    2
 0.1171869988310125    4    1    7    3
 -0.06347259740292305    4    1    7    4
 -0.04766901692698214    4    1    7    5
 -0.1055991980938464    4    1    8    2
 -0.03306877956286614    4    1    8    3
 -0.03341324985886424    4    1    8    4
 -0.03920985702346952    4    1    8    5
 -0.0313847186711169    4    1    9    2
 0.03186959102501302    4    1    9    3
 0.2450182541818088    4    1    9    4
 -0.0778304329455146    4    1    9    5
 -0.1412263910023369    4    1   10    2
 -0.05795578202197964    4    1   10    3
 0.01207937957277007    4    1   10    4
 0.05715755857326078    4    1   10    5
 -0.02879486366157165    4    1   11    2
 -0.02569910815598539    4    1   11    3
 -0.03874717773461513    4    1   11    4
 -0.09633257371432635    4    1   11    5
 -0.08199664297699184    4    1   12    6
 -0.006069027329650346    4    1   12    7
 0.0005298553821328027    4    1   12    8
 0.2345517729407677    4    1   12    9
 -0.006823784610951905    4    1   12   10
 0.06395353408931803    4    1   12   11
 0.07715278025691116    4    1   13    6
 -0.06636256702983682    4    1   13    7
 0.08101302234961208    4    1   13    8
 -0.05106581491837972    4    1   13    9
 0.07848846594503407    4    1   13   10
 0.05273914571743964    4    1   13   11
 -0.05054963533028168    4    1   14    6
 0.001684825798021397    4    1   14    7
 -0.0837119427367352    4    1   14    8
 -0.05468244925067015    4    1   14    9
 -0.1109717374553641    4    1   14   10
 0.05739845123654084    4    1   14   11
 -0.1059057324330769    4    1   15    6
 0.05540657287433327    4    1   15    7
 0.01342397952137773    4    1   15    8
 -0.04767739042861428    4    1   15    9
 0.09211740095980168    4    1   15   10
 0.06279849128230915    4    1   15   11
 0.2019505223289567    4    1   16   12
 -0.07186803541063955    4    1   16   13
 0.04124091885858551    4    1   16   14
 0.05405307790069597    4    1   16   15
 0.0433600376947177    4    2    2    2
 -0.006497198122359145    4    2    3    2
 -0.06595623738380377    4    2    3    3
 0.1579813096277628    4    2    4    2
 0.03671372223166838    4    2    4    3
 -0.006099325379398246    4    2    4    4
 0.07248833828337196    4    2    5    2
 0.01796790271060449    4    2    5    3
 0.007479837678704771    4    2    5    4
 0.02869552506848441    4    2    5    5
 -0.02939826491676485    4    2    6    1
 -0.07408051560859569    4    2    6    6
 -0.04186343885361107    4    2    7    1
 0.04728186412726668    4    2    7    6
 -0.06663383050437616    4    2    7    7
 -0.1055991980938464    4    2    8    1
 -0.06126785116020754    4    2    8    6
 0.09263597539678912    4    2    8    7
 0.04851375079203799    4    2    8    8
 -0.0313847186711169    4    2    9    1
 -0.01708413835051543    4    2    9    6
 0.04036501172512753    4    2    9    7
 -0.009032370717920193    4    2    9    8
 -0.00385939235998939    4    2    9    9
 -0.1412263910023369    4    2   10    1
 -0.1071312476554314    4    2   10    6
 0.08498630257064962    4    2   10    7
 0.02747781253451476    4    2   10    8
 -0.03894746892848629    4    2   10    9
 0.02728779944370352    4    2   10   10
 -0.02879486366157165    4    2   11    1
 -0.03096931743626324    4    2   11    6
 0.03157726983952118    4    2   11    7
 0.09665945078765724    4    2   11    8
 0.01192164014046729    4    2   11    9
 0.1148132071139762    4    2   11   10
 0.06877218823721966    4    2   11   11
 -0.13302033236116    4    2   12    2
 -0.003963585881389469    4    2   12    3
 -0.0250376549631126    4    2   12    4
 -0.01941236126354894    4    2   12    5
 0.03438088387139347    4    2   12   12
 0.01188191040076939    4    2   13    2
 0.05492043729637289    4    2   13    3
 -0.08469125753115042    4    2   13    4
 -0.05327980150204192    4    2   13    5
 0.04406488557104603    4    2   13   12
 -0.05396257959745084    4    2   13   13
 0.00484759955266161    4    2   14    2
 -0.04847572148753004    4    2   14    3
 0.1155765706803325    4    2   14    4
 0.03226514868589887    4    2   14    5
 -0.08205977491950135    4    2   14   12
 0.05340518133455191    4    2   14   13
 -0.07482333596903994    4    2   14   14
 -0.1178311951911801    4    2   15    2
 -0.06828269364654561    4    2   15    3
 -0.06201035864549094    4    2   15    4
 -0.002658143506902161    4    2   15    5
 0.09437324095850134    4    2   15   12
 0.06942989122992635    4    2   15   13
 -0.03114736575015265    4    2   15   14
 0.09440503169509734    4    2   15   15
 -0.01019179265050085    4    2   16    6
 0.01036262755208772    4    2   16    7
 0.09476105934436917    4    2   16    8
 0.01957050050423129    4    2   16    9
 0.1600536515653154    4    2   16   10
 0.01832876048917877    4    2   16   11
 -0.006497198122359153    4    3    2    2
 -0.06595623738380377    4    3    3    2
 0.05779198813442483    4    3    3    3
 0.03671372223166838    4    3    4    2
 0.1039931456191621    4    3    4    3
 0.01436685806634174    4    3    4    4
 0.01796790271060449    4    3    5    2
 0.01670786985934466    4    3    5    3
 -0.04818111758762727    4    3    5    4
 -0.06566164807840705    4    3    5    5
 -0.05936989169249181    4    3    6    1
 -0.003792305831096918    4    3    6    6
 0.1171869988310125    4    3    7    1
 -0.05409439788603455    4    3    7    6
 0.09994136885493937    4    3    7    7
 -0.03306877956286614    4    3    8    1
 -0.05360561736378348    4    3    8    6
 0.01196023551199429    4    3    8    7
 -0.04467887849591912    4    3    8    8
 0.03186959102501302    4    3    9    1
 -0.0612134015829966    4    3    9    6
 -0.01882810100172583    4    3    9    7
 -0.04490429734637755    4    3    9    8
 0.04879097197859209    4    3    9    9
 -0.05795578202197964    4    3   10    1
 -0.06924050069305379    4    3   10    6
 0.1143398893751126    4    3   10    7
 -0.01281801730685231    4    3   10    8
 -0.01877081801546646    4    3   10    9
 -0.08029154746382483    4    3   10   10
 -0.02569910815598539    4    3   11    1
 0.04553613387628396    4    3   11    6
 -0.04458639588750128    4    3   11    7
 0.01695896252194189    4    3   11    8
 0.02007972179959481    4    3   11    9
 0.0310188788716789    4    3   11   10
 -0.01996960904269015    4    3   11   11
 -0.003963585881389476    4    3   12    2
 -0.09430322276909622    4    3   12    3
 0.04609720510290308    4    3   12    4
 -0.00427935376629126    4    3   12    5
 0.1062609348965353    4    3   12   12
 0.05492043729637289    4    3   13    2
 -0.01363641766930315    4    3   13    3
 -0.1003553658679026    4    3   13    4
 0.00949246429867366    4    3   13    5
 0.05288083953537859    4    3   13   12
 -0.03816657034132913    4    3   13   13
 -0.04847572148753004    4    3   14    2
 -0.04751908149815733    4    3   14    3
 0.04082365853534688    4    3   14    4
 0.02923426142823413    4    3   14    5
 -0.006909536913355397    4    3   14   12
 0.05772735693709571    4    3   14   13
 -0.0696909471333767    4    3   14   14
 -0.06828269364654561    4    3   15    2
 0.08867809529199117    4    3   15    3
 0.01718492347013229    4    3   15    4
 -0.04904902880525522    4    3   15    5
 -0.04924155857072324    4    3   15   12
 -0.01417186422506768    4    3   15   13
 -0.07602787541701045    4    3   15   14
 0.001596582578170802    4    3   15   15
 0.07745708476753202    4    3   16    6
 -0.08065714077698598    4    3   16    7
 0.05686254811124235    4    3   16    8
 0.0778879064971633    4    3   16    9
 0.01430006613087148    4    3   16   10
 0.03710211573083856    4    3   16   11
 0.2248812500000001    4    4    1    1
 0.1579813096277628    4    4    2    2
 0.03671372223166838    4    4    3    2
 0.1039931456191621    4    4    3    3
 -0.006099325379398252    4    4    4    2
 0.01436685806634174    4    4    4    3
 0.5247325844713042    4    4    4    4
 0.007479837678704767    4    4    5    2
 -0.04818111758762727    4    4    5    3
 -0.0517957461655759    4    4    5    4
 0.1128179602817712    4    4    5    5
 -0.02458712970861369    4    4    6    1
 0.1529572965160158    4    4    6    6
 -0.06347259740292305    4    4    7    1
 -0.0770780094050303    4    4    7    6
 0.1302909706998443    4    4    7    7
 -0.03341324985886424    4    4    8    1
 0.05680414228126965    4    4    8    6
 -0.00107290198308901    4    4    8    7
 0.1274000215387729    4    4    8    8
 0.2450182541818088    4    4    9    1
 -0.1182153209739466    4    4    9    6
 -0.03362523360437841    4    4    9    7
 -0.01311797712684971    4    4    9    8
 0.5824307185682429    4    4    9    9
 0.01207937957277007    4    4   10    1
 0.05724084175498028    4    4   10    6
 -0.02054923166490961    4    4   10    7
 0.1381457264864701    4    4   10    8
 -0.0126107654523672    4    4   10    9
 0.2388994613580078    4    4   10   10
 -0.03874717773461513    4    4   11    1
 -0.05620781041330765    4    4   11    6
 0.02193792720679459    4    4   11    7
 0.04138593920247597    4    4   11    8
 0.01895680485945445    4    4   11    9
 0.01200663654258423    4    4   11   10
 0.1173090313191172    4    4   11   11
 -0.02503765496311259    4    4   12    2
 0.0460972051029031    4    4   12    3
 0.2547682153102446    4    4   12    4
 -0.1289388891538448    4    4   12    5
 0.4744536483876551    4    4   12   12
 -0.08469125753115042    4    4   13    2
 -0.1003553658679026    4    4   13    3
 -0.06225119779243712    4    4   13    4
 0.03362710083715008    4    4   13    5
 -0.1313345861729266    4    4   13   12
 0.1495644494098677    4    4   13   13
 0.1155765706803325    4    4   14    2
 0.04082365853534688    4    4   14    3
 -0.05794025847090949    4    4   14    4
 -0.03185123679383946    4    4   14    5
 0.01788126244420294    4    4   14   12
 -0.07403003983704572    4    4   14   13
 0.1328082531972805    4    4   14   14
 -0.06201035864549094    4    4   15    2
 0.01718492347013229    4    4   15    3
 -0.06387279559168628    4    4   15    4
 -0.02667839491212969    4    4   15    5
 0.05102955584575179    4    4   15   12
 -0.007418308134126844    4    4   15   13
 0.01130161967587431    4    4   15   14
 0.1426986490051972    4    4   15   15
 -0.1330183278342684    4    4   16    6
 0.02938476925845812    4    4   16    7
 -0.03753977806001262    4    4   16    8
 0.2054666127208151    4    4   16    9
 -0.02942097700990921    4    4   16   10
 0.06619852670489947    4    4   16   11
 0.2248812500000002    4    4   16   16
 0.2248812499999999    5    1    5    1
 -0.1026021860468249    5    1    6    2
 0.04456477063611941    5    1    6    3
 0.05437249594290423    5    1    6    4
 -0.0847713538601625    5    1    6    5
 -0.05400528596561507    5    1    7    2
 0.02917283496642932    5    1    7    3
 -0.04766901692698214    5    1    7    4
 -0.1008534759205157    5    1    7    5
 -0.01198225207511869    5    1    8    2
 0.1060471443990166    5    1    8    3
 -0.03920985702346952    5    1    8    4
 -0.02448929822490871    5    1    8    5
 -0.03167865551337835    5    1    9    2
 -0.004069359718938237    5    1    9    3
 -0.07783043294551459    5    1    9    4
 -0.1107212992679908    5    1    9    5
 -0.04304830731681253    5    1   10    2
 -0.1340203434828844    5    1   10    3
 0.05715755857326076    5    1   10    4
 0.00559601608554048    5    1   10    5
 -0.09324565447286223    5    1   11    2
 0.04460466283120986    5    1   11    3
 -0.09633257371432637    5    1   11    4
 0.1921113600613386    5    1   11    5
 -0.02751754088032214    5    1   12    6
 0.03067702055912223    5    1   12    7
 0.05906000193837536    5    1   12    8
 -0.09235372832791484    5    1   12    9
 -0.01177945972653249    5    1   12   10
 0.07694344371727588    5    1   12   11
 0.04157586587560202    5    1   13    6
 0.03373285420748883    5    1   13    7
 0.08485343247713011    5    1   13    8
 0.0255476923952723    5    1   13    9
 0.03335930819009422    5    1   13   10
 -0.1780275664085497    5    1   13   11
 0.05650278211252145    5    1   14    6
 0.05883955557520497    5    1   14    7
 -0.1209185035873585    5    1   14    8
 -0.04589106470554223    5    1   14    9
 0.0443894912057263    5    1   14   10
 -0.1194632964755531    5    1   14   11
 -0.09918796119605876    5    1   15    6
 -0.08930617654844936    5    1   15    7
 -0.06284043377341021    5    1   15    8
 -0.08207761417974643    5    1   15    9
 0.1289292957143234    5    1   15   10
 -0.0605647121181576    5    1   15   11
 -0.03111418423254906    5    1   16   12
 0.09854444093658615    5    1   16   13
 0.1473146637137314    5    1   16   14
 0.1348735228149374    5    1   16   15
 -0.06565018514715182    5    2    2    2
 0.04091411422359032    5    2    3    2
 0.05910045013773611    5    2    3    3
 0.07248833828337196    5    2    4    2
 0.01796790271060449    5    2    4    3
 0.00747983767870477    5    2    4    4
 0.1117869983142537    5    2    5    2
 -0.02525574719702828    5    2    5    3
 0.02869552506848441    5    2    5    4
 -0.0009301026692890325    5    2    5    5
 -0.1026021860468249    5    2    6    1
 -0.1326028400814551    5    2    6    6
 -0.05400528596561507    5    2    7    1
 -0.0731423237108763    5    2    7    6
 -0.01903752687996792    5    2    7    7
 -0.01198225207511869    5    2    8    1
 0.0237621330307263    5    2    8    6
 0.07875855131217965    5    2    8    7
 0.1024394528070078    5    2    8    8
 -0.03167865551337835    5    2    9    1
 0.03973962594734589    5    2    9    6
 0.04759133692256984    5    2    9    7
 -0.01543272583356898    5    2    9    8
 0.0279822682381077    5    2    9    9
 -0.04304830731681253    5    2   10    1
 -0.06803395468695742    5    2   10    6
 0.02695238428227737    5    2   10    7
 -0.04005786834032592    5    2   10    8
 -0.02751239966965852    5    2   10    9
 0.05877838904776118    5    2   10   10
 -0.09324565447286225    5    2   11    1
 -0.03508477931409079    5    2   11    6
 -0.01477119930473307    5    2   11    7
 0.01861863875070546    5    2   11    8
 0.03847615981779074    5    2   11    9
 0.07772312842680271    5    2   11   10
 -0.03755974313145354    5    2   11   11
 -0.03248874254429928    5    2   12    2
 -0.01047121035702594    5    2   12    3
 -0.01941236126354893    5    2   12    4
 -0.01459858155849115    5    2   12    5
 0.03726918241769444    5    2   12   12
 0.04458267979872883    5    2   13    2
 0.07220867179534099    5    2   13    3
 -0.05327980150204192    5    2   13    4
 0.03224215565176246    5    2   13    5
 0.06213261983043852    5    2   13   12
 0.03196274037693297    5    2   13   13
 0.1229436323174997    5    2   14    2
 -0.07125929021709289    5    2   14    3
 0.03226514868589887    5    2   14    4
 0.01403508758229335    5    2   14    5
 -0.02266587013507984    5    2   14   12
 -0.01484759195290926    5    2   14   13
 -0.1554666796695812    5    2   14   14
 -0.09571315784328327    5    2   15    2
 -0.01058818760787483    5    2   15    3
 -0.002658143506902161    5    2   15    4
 0.08204416290619453    5    2   15    5
 0.03304232665548951    5    2   15   12
 0.01673499162031088    5    2   15   13
 0.04651692445676677    5    2   15   14
 0.0862347568749538    5    2   15   15
 -0.09025219410123063    5    2   16    6
 -0.08261716541913643    5    2   16    7
 0.08378378849961433    5    2   16    8
 -0.01662619276852663    5    2   16    9
 0.05346555150018413    5    2   16   10
 0.003609245646251928    5    2   16   11
 0.04091411422359032    5    3    2    2
 0.05910045013773613    5    3    3    2
 0.01192444215125508    5    3    3    3
 0.01796790271060448    5    3    4    2
 0.01670786985934465    5    3    4    3
 -0.04818111758762727    5    3    4    4
 -0.02525574719702828    5    3    5    2
 0.1514161719533873    5    3    5    3
 -0.06566164807840703    5    3    5    4