 &FCI NORB=  14,NELEC= 8,MS2=2,
  ORBSYM=1,1,1,1,1,1,1,1,1,1,1,1,1,1
  ISYM=1,
 &END
 0.2567009757142853    1    1    1    1
 0.2567009757142856    1    1    2    2
 0.2567009757142856    1    1    3    3
 0.2567009757142854    1    1    4    4
 0.2567009757142855    1    1    5    5
 0.2567009757142854    1    1    6    6
 0.2567009757142857    1    1    7    7
 0.2567009757142854    1    1    8    8
 0.2567009757142855    1    1    9    9
 0.2567009757142856    1    1   10   10
 0.2567009757142859    1    1   11   11
 0.2567009757142852    1    1   12   12
 0.2567009757142854    1    1   13   13
 0.2567009757142854    1    1   14   14
 0.2567009757142856    2    1    2    1
 0.181461940582926    2    1    4    2
 -0.004388574507945222    2    1    4    3
 -0.004388574507945119    2    1    5    2
 -0.1814619405829259    2    1    5    3
 -0.1783569945342945    2    1    6    4
 0.03371168887829117    2    1    6    5
 -0.03371168887829114    2    1    7    4
 -0.1783569945342948    2    1    7    5
 -0.1752580667379505    2    1    8    6
 0.04724728044670067    2    1    8    7
 0.04724728044670057    2    1    9    6
 0.1752580667379507    2    1    9    7
 0.1811352719689919    2    1   10    8
 -0.01173493566460695    2    1   10    9
 0.01173493566460703    2    1   11    8
 0.181135271968992    2    1   11    9
 0.1802142876421118    2    1   12   10
 -0.02169115017649428    2    1   12   11
 -0.02169115017649434    2    1   13   10
 -0.1802142876421121    2    1   13   11
 0.2542492890127265    2    1   14   12
 -0.03539336052410441    2    1   14   13
 -1.134509153288832e-15    2    1   14   14
 0.2567009757142855    2    2    1    1
 0.3850514635714288    2    2    2    2
 0.1283504878571428    2    2    3    3
 0.181461940582926    2    2    4    1
 0.2567009757142856    2    2    4    4
 -0.004388574507945098    2    2    5    1
 0.2567009757142857    2    2    5    5
 -0.1266569108773089    2    2    6    2
 -0.02078159426473402    2    2    6    3
 0.2567009757142857    2    2    6    6
 -0.02078159426473414    2    2    7    2
 0.1266569108773088    2    2    7    3
 0.2567009757142859    2    2    7    7
 0.1155652655778209    2    2    8    4
 -0.05584368473779552    2    2    8    5
 0.2567009757142858    2    2    8    8
 -0.05584368473779548    2    2    9    4
 -0.1155652655778211    2    2    9    5
 0.2567009757142857    2    2    9    9
 -0.1258267962941389    2    2   10    6
 0.02532716066833908    2    2   10    7
 0.2567009757142857    2    2   10   10
 0.02532716066833901    2    2   11    6
 0.125826796294139    2    2   11    7
 0.256700975714286    2    2   11   11
 0.1261725619188489    2    2   12    8
 -0.02354426367506147    2    2   12    9
 1.366962099069724e-15    2    2   12   10
 0.3801715056137168    2    2   12   12
 -0.02354426367506157    2    2   13    8
 -0.1261725619188489    2    2   13    9
 -0.0350553274056911    2    2   13   12
 0.1332304458148543    2    2   13   13
 0.1814838337551693    2    2   14   10
 0.003363562376291814    2    2   14   11
 0.2567009757142856    2    2   14   14
 0.2567009757142856    3    1    3    1
 -0.004388574507945223    3    1    4    2
 -0.1814619405829259    3    1    4    3
 -0.1814619405829259    3    1    5    2
 0.004388574507945176    3    1    5    3
 -0.03371168887829112    3    1    6    4
 -0.1783569945342947    3    1    6    5
 0.1783569945342947    3    1    7    4
 -0.0337116888782911    3    1    7    5
 -0.04724728044670062    3    1    8    6
 -0.1752580667379506    3    1    8    7
 -0.1752580667379506    3    1    9    6
 0.04724728044670057    3    1    9    7
 -0.01173493566460701    3    1   10    8
 -0.181135271968992    3    1   10    9
 0.181135271968992    3    1   11    8
 -0.01173493566460708    3    1   11    9
 -0.02169115017649437    3    1   12   10
 -0.1802142876421121    3    1   12   11
 -0.1802142876421121    3    1   13   10
 0.02169115017649437    3    1   13   11
 0.0353933605241043    3    1   14   12
 0.2542492890127266    3    1   14   13
 0.1283504878571428    3    2    3    2
 -0.00438857450794522    3    2    4    1
 -0.1814619405829259    3    2    5    1
 -0.02078159426473402    3    2    6    2
 0.1266569108773089    3    2    6    3
 0.1266569108773089    3    2    7    2
 0.02078159426473402    3    2    7    3
 0.05584368473779541    3    2    8    4
 0.1155652655778209    3    2    8    5
 0.1155652655778209    3    2    9    4
 -0.05584368473779538    3    2    9    5
 -0.02532716066833898    3    2   10    6
 -0.125826796294139    3    2   10    7
 -0.1258267962941389    3    2   11    6
 0.02532716066833897    3    2   11    7
 -0.02354426367506159    3    2   12    8
 -0.1261725619188488    3    2   12    9
 0.03505532740569109    3    2   12   12
 -0.1261725619188488    3    2   13    8
 0.02354426367506161    3    2   13    9
 0.1234705298994314    3    2   13   12
 -0.03505532740569113    3    2   13   13
 0.003363562376291701    3    2   14   10
 -0.1814838337551694    3    2   14   11
 0.2567009757142856    3    3    1    1
 0.1283504878571428    3    3    2    2
 0.3850514635714286    3    3    3    3
 -0.1814619405829259    3    3    4    1
 0.2567009757142856    3    3    4    4
 0.004388574507945196    3    3    5    1
 0.2567009757142856    3    3    5    5
 0.1266569108773088    3    3    6    2
 0.02078159426473402    3    3    6    3
 0.2567009757142859    3    3    6    6
 0.02078159426473402    3    3    7    2
 -0.1266569108773088    3    3    7    3
 0.2567009757142859    3    3    7    7
 -0.1155652655778208    3    3    8    4
 0.05584368473779539    3    3    8    5
 0.2567009757142856    3    3    8    8
 0.0558436847377954    3    3    9    4
 0.1155652655778209    3    3    9    5
 0.2567009757142856    3    3    9    9
 0.125826796294139    3    3   10    6
 -0.025327160668339    3    3   10    7
 0.256700975714286    3    3   10   10
 -0.02532716066833901    3    3   11    6
 -0.1258267962941391    3    3   11    7
 0.256700975714286    3    3   11   11
 -0.1261725619188489    3    3   12    8
 0.02354426367506159    3    3   12    9
 0.1332304458148543    3    3   12   12
 0.02354426367506156    3    3   13    8
 0.1261725619188487    3    3   13    9
 1.051242426441945e-15    3    3   13   11
 0.03505532740569108    3    3   13   12
 0.3801715056137167    3    3   13   13
 1.061650767297806e-15    3    3   14    8
 -0.1814838337551694    3    3   14   10
 -0.00336356237629175    3    3   14   11
 0.2567009757142855    3    3   14   14
 0.181461940582926    4    1    2    2
 -0.004388574507945211    4    1    3    2
 -0.1814619405829259    4    1    3    3
 0.2567009757142853    4    1    4    1
 -0.1783569945342945    4    1    6    2
 -0.03371168887829108    4    1    6    3
 -0.03371168887829114    4    1    7    2
 0.1783569945342947    4    1    7    3
 0.1614767776148282    4    1    8    4
 -0.08290323128482018    4    1    8    5
 -0.08290323128482016    4    1    9    4
 -0.1614767776148283    4    1    9    5
 -0.1770279558772613    4    1   10    6
 0.04010982802570408    4    1   10    7
 0.04010982802570404    4    1   11    6
 0.1770279558772614    4    1   11    7
 0.1791878166843016    4    1   12    8
 -0.02897277719249911    4    1   12    9
 0.1733640394799197    4    1   12   12
 -0.02897277719249914    4    1   13    8
 -0.1791878166843016    4    1   13    9
 -0.05378294601021642    4    1   13   12
 -0.1733640394799197    4    1   13   13
 0.2564668663369615    4    1   14   10
 0.01096072096010679    4    1   14   11
 -1.172673069760322e-15    4    1   14   12
 0.181461940582926    4    2    2    1
 -0.004388574507945216    4    2    3    1
 0.2567009757142856    4    2    4    2
 -0.1783569945342945    4    2    6    1
 -0.1255042369693161    4    2    6    4
 0.02687999694784755    4    2    6    5
 -0.03371168887829114    4    2    7    1
 -0.02687999694784747    4    2    7    4
 -0.1255042369693162    4    2    7    5
 0.1155652655778209    4    2    8    2
 0.05584368473779541    4    2    8    3
 -0.1230821994136427    4    2    8    6
 0.03639532828079561    4    2    8    7
 -0.05584368473779548    4    2    9    2
 0.1155652655778209    4    2    9    3
 0.03639532828079551    4    2    9    6
 0.1230821994136426    4    2    9    7
 0.1177323305116361    4    2   10    4
 -0.0511169843150536    4    2   10    5
 0.1282451595963582    4    2   10    8
 -0.005198728043589045    4    2   10    9
 1.061650767297806e-15    4    2   10   10
 -0.05111698431505356    4    2   11    4
 -0.1177323305116362    4    2   11    5
 0.005198728043589087    4    2   11    8
 0.1282451595963582    4    2   11    9
 -0.1276699286912563    4    2   12    6
 0.01319988792134468    4    2   12    7
 0.2540174155554082    4    2   12   10
 0.01085603786047063    4    2   12   11
 -0.01319988792134468    4    2   13    6
 -0.1276699286912564    4    2   13    7
 -0.03536108204300135    4    2   13   10
 -0.001511239867576303    4    2   13   11
 0.1814711409283232    4    2   14    8
 -0.003990047180897544    4    2   14    9
 0.1791237561461791    4    2   14   12
 -0.02936622976170489    4    2   14   13
 -1.006139616066548e-15    4    2   14   14
 -0.004388574507945218    4    3    2    1
 -0.1814619405829259    4    3    3    1
 0.2567009757142856    4    3    4    3
 -0.03371168887829109    4    3    6    1
 0.02687999694784751    4    3    6    4
 0.1255042369693162    4    3    6    5
 0.1783569945342947    4    3    7    1
 -0.1255042369693163    4    3    7    4
 0.02687999694784751    4    3    7    5
 0.05584368473779541    4    3    8    2
 -0.1155652655778208    4    3    8    3
 0.03639532828079558    4    3    8    6
 0.1230821994136426    4    3    8    7
 0.1155652655778209    4    3    9    2
 0.05584368473779538    4    3    9    3
 0.1230821994136427    4    3    9    6
 -0.03639532828079553    4    3    9    7
 0.05111698431505359    4    3   10    4
 0.1177323305116362    4    3   10    5
 0.005198728043589092    4    3   10    8
 0.1282451595963583    4    3   10    9
 0.1177323305116363    4    3   11    4
 -0.05111698431505354    4    3   11    5
 -0.1282451595963582    4    3   11    8
 0.005198728043589149    4    3   11    9
 -0.01319988792134465    4    3   12    6
 -0.1276699286912564    4    3   12    7
 0.03536108204300145    4    3   12   10
 0.001511239867576378    4    3   12   11
 0.1276699286912564    4    3   13    6
 -0.01319988792134463    4    3   13    7
 0.2540174155554085    4    3   13   10
 0.01085603786047067    4    3   13   11
 -1.033895191682177e-15    4    3   13   12
 -0.003990047180897547    4    3   14    8
 -0.1814711409283231    4    3   14    9
 -0.0293662297617049    4    3   14   12
 -0.179123756146179    4    3   14   13
 0.2567009757142854    4    4    1    1
 0.2567009757142856    4    4    2    2
 0.2567009757142856    4    4    3    3
 0.3850514635714282    4    4    4    4
 0.1283504878571428    4    4    5    5
 -0.1255042369693161    4    4    6    2
 0.02687999694784751    4    4    6    3
 0.2567009757142856    4    4    6    6
 -0.02687999694784748    4    4    7    2
 -0.1255042369693163    4    4    7    3
 0.2567009757142857    4    4    7    7
 0.1614767776148282    4    4    8    1
 0.2567009757142855    4    4    8    8
 -0.08290323128482013    4    4    9    1
 0.2567009757142855    4    4    9    9
 0.1177323305116361    4    4   10    2
 0.05111698431505359    4    4   10    3
 0.3845834583227884    4    4   10   10
 -0.05111698431505356    4    4   11    2
 0.1177323305116363    4    4   11    3
 0.01095072486425304    4    4   11   10
 0.1288184931057831    4    4   11   11
 0.1220743629328831    4    4   12    4
 -0.03964464210580372    4    4   12    5
 0.1270854734646521    4    4   12    8
 0.01797582174566011    4    4   12    9
 0.2567009757142852    4    4   12   12
 0.03964464210580373    4    4   13    4
 0.1220743629328831    4    4   13    5
 -0.01797582174566006    4    4   13    8
 0.1270854734646521    4    4   13    9
 0.2567009757142852    4    4   13   13
 -0.1751538822165424    4    4   14    6
 0.04763205864548278    4    4   14    7
 0.2567009757142854    4    4   14   14
 -0.004388574507945085    5    1    2    2
 -0.1814619405829259    5    1    3    2
 0.004388574507945203    5    1    3    3
 0.2567009757142855    5    1    5    1
 0.03371168887829115    5    1    6    2
 -0.1783569945342947    5    1    6    3
 -0.1783569945342948    5    1    7    2
 -0.0337116888782911    5    1    7    3
 -0.08290323128482016    5    1    8    4
 -0.1614767776148284    5    1    8    5
 -0.1614767776148283    5    1    9    4
 0.08290323128482013    5    1    9    5
 0.04010982802570406    5    1   10    6
 0.1770279558772614    5    1   10    7
 0.1770279558772613    5    1   11    6
 -0.04010982802570404    5    1   11    7
 0.02897277719249914    5    1   12    8
 0.1791878166843016    5    1   12    9
 -0.05378294601021646    5    1   12   12
 0.1791878166843017    5    1   13    8
 -0.02897277719249925    5    1   13    9
 -0.17336403947992    5    1   13   12
 0.05378294601021654    5    1   13   13
 -0.01096072096010671    5    1   14   10
 0.2564668663369617    5    1   14   11
 -0.004388574507945071    5    2    2    1
 -0.1814619405829259    5    2    3    1
 0.2567009757142857    5    2    5    2
 0.03371168887829115    5    2    6    1
 0.02687999694784755    5    2    6    4
 0.1255042369693162    5    2    6    5
 -0.1783569945342948    5    2    7    1
 -0.1255042369693162    5    2    7    4
 0.02687999694784748    5    2    7    5
 -0.05584368473779552    5    2    8    2
 0.1155652655778209    5    2    8    3
 0.03639532828079558    5    2    8    6
 0.1230821994136427    5    2    8    7
 -0.1155652655778211    5    2    9    2
 -0.05584368473779536    5    2    9    3
 0.1230821994136425    5    2    9    6
 -0.03639532828079553    5    2    9    7
 -0.0511169843150536    5    2   10    4
 -0.1177323305116363    5    2   10    5
 0.00519872804358905    5    2   10    8
 0.1282451595963582    5    2   10    9
 -0.1177323305116362    5    2   11    4
 0.05111698431505357    5    2   11    5
 -0.1282451595963582    5    2   11    8
 0.005198728043589115    5    2   11    9
 0.01319988792134468    5    2   12    6
 0.1276699286912564    5    2   12    7
 -0.01085603786047062    5    2   12   10
 0.2540174155554086    5    2   12   11
 -0.1276699286912565    5    2   13    6
 0.01319988792134466    5    2   13    7
 0.001511239867576342    5    2   13   10
 -0.03536108204300148    5    2   13   11
 0.003990047180897561    5    2   14    8
 0.1814711409283232    5    2   14    9
 -0.02936622976170485    5    2   14   12
 -0.1791237561461792    5    2   14   13
 -0.1814619405829259    5    3    2    1
 0.004388574507945183    5    3    3    1
 0.2567009757142856    5    3    5    3
 -0.1783569945342947    5    3    6    1
 0.1255042369693162    5    3    6    4
 -0.02687999694784746    5    3    6    5
 -0.03371168887829108    5    3    7    1
 0.02687999694784749    5    3    7    4
 0.1255042369693163    5    3    7    5
 0.115565265577821    5    3    8    2
 0.05584368473779541    5    3    8    3
 0.1230821994136427    5    3    8    6
 -0.03639532828079546    5    3    8    7
 -0.05584368473779536    5    3    9    2
 0.1155652655778209    5    3    9    3
 -0.03639532828079554    5    3    9    6
 -0.1230821994136427    5    3    9    7
 0.1177323305116362    5    3   10    4
 -0.05111698431505353    5    3   10    5
 -0.1282451595963582    5    3   10    8
 0.005198728043589151    5    3   10    9
 -0.05111698431505353    5    3   11    4
 -0.1177323305116363    5    3   11    5
 -0.005198728043589165    5    3   11    8
 -0.1282451595963581    5    3   11    9
 -0.1276699286912565    5    3   12    6
 0.01319988792134462    5    3   12    7
 -0.001511239867576198    5    3   12   10
 0.03536108204300148    5    3   12   11
 -0.01319988792134463    5    3   13    6
 -0.1276699286912565    5    3   13    7
 -0.01085603786047057    5    3   13   10
 0.2540174155554086    5    3   13   11
 0.1814711409283232    5    3   14    8
 -0.003990047180897655    5    3   14    9
 -0.1791237561461793    5    3   14   12
 0.02936622976170489    5    3   14   13
 0.1283504878571428    5    4    5    4
 0.02687999694784755    5    4    6    2
 0.1255042369693162    5    4    6    3
 -0.1255042369693163    5    4    7    2
 0.0268799969478475    5    4    7    3
 -0.08290323128482018    5    4    8    1
 -0.1614767776148283    5    4    9    1
 -0.0511169843150536    5    4   10    2
 0.1177323305116362    5    4   10    3
 -0.01095072486425298    5    4   10   10
 -0.1177323305116362    5    4   11    2
 -0.05111698431505353    5    4   11    3
 0.1278824826085028    5    4   11   10
 0.01095072486425302    5    4   11   11
 -0.03964464210580372    5    4   12    4
 -0.1220743629328832    5    4   12    5
 -0.01797582174566016    5    4   12    8
 0.1270854734646521    5    4   12    9
 0.1220743629328831    5    4   13    4
 -0.03964464210580369    5    4   13    5
 -0.1270854734646521    5    4   13    8
 -0.01797582174566005    5    4   13    9
 0.04763205864548283    5    4   14    6
 0.1751538822165424    5    4   14    7
 0.2567009757142855    5    5    1    1
 0.2567009757142857    5    5    2    2
 0.2567009757142856    5    5    3    3
 0.1283504878571428    5    5    4    4
 0.3850514635714284    5    5    5    5
 0.1255042369693162    5    5    6    2
 -0.02687999694784747    5    5    6    3
 0.2567009757142857    5    5    6    6
 0.02687999694784748    5    5    7    2
 0.1255042369693163    5    5    7    3
 0.2567009757142858    5    5    7    7
 -0.1614767776148283    5    5    8    1
 0.2567009757142857    5    5    8    8
 0.08290323128482012    5    5    9    1
 0.2567009757142856    5    5    9    9
 -0.1177323305116363    5    5   10    2
 -0.05111698431505353    5    5   10    3
 0.1288184931057831    5    5   10   10
 0.05111698431505359    5    5   11    2
 -0.1177323305116363    5    5   11    3
 -0.010950724864253    5    5   11   10
 0.3845834583227888    5    5   11   11
 -0.1220743629328832    5    5   12    4
 0.03964464210580376    5    5   12    5
 -0.1270854734646522    5    5   12    8
 -0.01797582174566008    5    5   12    9
 0.2567009757142856    5    5   12   12
 -0.03964464210580368    5    5   13    4
 -0.1220743629328833    5    5   13    5
 0.01797582174566008    5    5   13    8
 -0.1270854734646522    5    5   13    9
 0.2567009757142856    5    5   13   13
 0.1751538822165425    5    5   14    6
 -0.04763205864548275    5    5   14    7
 0.2567009757142856    5    5   14   14
 -0.1783569945342945    6    1    4    2
 -0.03371168887829111    6    1    4    3
 0.03371168887829117    6    1    5    2
 -0.1783569945342947    6    1    5    3
 0.2567009757142854    6    1    6    1
 -0.1752580667379505    6    1    8    2
 -0.04724728044670059    6    1    8    3
 0.04724728044670058    6    1    9    2
 -0.1752580667379506    6    1    9    3
 -0.1770279558772613    6    1   10    4
 0.04010982802570406    6    1   10    5
 0.04010982802570402    6    1   11    4
 0.1770279558772613    6    1   11    5
 0.180878278502943    6    1   12    6
 0.01519025451218164    6    1   12    7
 -0.1815119698490254    6    1   12   10
 0.001048936537431047    6    1   12   11
 -0.01519025451218164    6    1   13    6
 0.1808782785029432    6    1   13    7
 -0.00104893653743105    6    1   13   10
 -0.1815119698490258    6    1   13   11
 -0.2511259333691679    6    1   14    8
 0.05320861323254426    6    1   14    9
 -0.1266569108773089    6    2    2    2
 -0.02078159426473402    6    2    3    2
 0.1266569108773088    6    2    3    3
 -0.1783569945342945    6    2    4    1
 -0.1255042369693161    6    2    4    4
 0.03371168887829115    6    2    5    1
 0.02687999694784755    6    2    5    4
 0.1255042369693162    6    2    5    5
 0.2567009757142857    6    2    6    2
 -0.1752580667379505    6    2    8    1
 -0.1230821994136427    6    2    8    4
 0.03639532828079559    6    2    8    5
 0.04724728044670058    6    2    9    1
 0.03639532828079551    6    2    9    4
 0.1230821994136426    6    2    9    5
 -0.1258267962941389    6    2   10    2
 -0.02532716066833898    6    2   10    3
 0.1282673122319183    6    2   10    6
 -0.004619994152176201    6    2   10    7
 -0.1273399823040893    6    2   10   10
 0.02532716066833901    6    2   11    2
 -0.1258267962941389    6    2   11    3
 -0.00461999415217618    6    2   11    6
 -0.1282673122319185    6    2   11    7
 0.01607409841828593    6    2   11   10
 0.1273399823040897    6    2   11   11
 -0.1276699286912563    6    2   12    4
 0.01319988792134469    6    2   12    5
 -0.2487274925001974    6    2   12    8
 0.05270043109919774    6    2   12    9
 -0.1275172519065572    6    2   12   12
 -0.01319988792134467    6    2   13    4
 -0.1276699286912565    6    2   13    5
 0.03462468606500327    6    2   13    8
 -0.007336285442183735    6    2   13    9
 0.01460130813886501    6    2   13   12
 0.1275172519065577    6    2   13   13
 0.1812451539467703    6    2   14    6
 -0.009893919200433112    6    2   14    7
 -0.1796337694629645    6    2   14   10
 0.02606538576080639    6    2   14   11
 -0.02078159426473402    6    3    2    2
 0.1266569108773089    6    3    3    2
 0.02078159426473402    6    3    3    3
 -0.03371168887829109    6    3    4    1
 0.0268799969478475    6    3    4    4
 -0.1783569945342947    6    3    5    1
 0.1255042369693162    6    3    5    4
 -0.02687999694784749    6    3    5    5
 0.2567009757142859    6    3    6    3
 -0.0472472804467006    6    3    8    1
 0.03639532828079559    6    3    8    4
 0.1230821994136427    6    3    8    5
 -0.1752580667379506    6    3    9    1
 0.1230821994136427    6    3    9    4
 -0.03639532828079555    6    3    9    5
 -0.02532716066833898    6    3   10    2
 0.125826796294139    6    3   10    3
 -0.004619994152176223    6    3   10    6
 -0.1282673122319186    6    3   10    7
 0.01607409841828594    6    3   10   10
 -0.1258267962941389    6    3   11    2
 -0.02532716066833901    6    3   11    3
 -0.1282673122319184    6    3   11    6
 0.004619994152176145    6    3   11    7
 0.1273399823040898    6    3   11   10
 -0.01607409841828591    6    3   11   11
 -0.01319988792134465    6    3   12    4
 -0.1276699286912565    6    3   12    5
 -0.03462468606500334    6    3   12    8
 0.007336285442183683    6    3   12    9
 0.01460130813886514    6    3   12   12
 0.1276699286912564    6    3   13    4
 -0.01319988792134461    6    3   13    5
 -0.2487274925001975    6    3   13    8
 0.05270043109919775    6    3   13    9
 0.1275172519065577    6    3   13   12
 -0.01460130813886523    6    3   13   13
 0.00989391920043311    6    3   14    6
 0.1812451539467703    6    3   14    7
 -0.02606538576080636    6    3   14   10
 -0.1796337694629648    6    3   14   11
 -0.1783569945342945    6    4    2    1
 -0.0337116888782911    6    4    3    1
 -0.1255042369693161    6    4    4    2
 0.02687999694784751    6    4    4    3
 0.02687999694784755    6    4    5    2
 0.1255042369693162    6    4    5    3
 0.2567009757142856    6    4    6    4
 -0.1230821994136427    6    4    8    2
 0.03639532828079557    6    4    8    3
 0.1279749232687005    6    4    8    6
 -0.009811561931557303    6    4    8    7
 0.03639532828079551    6    4    9    2
 0.1230821994136427    6    4    9    3
 -0.009811561931557232    6    4    9    6
 -0.1279749232687005    6    4    9    7
 -0.1770279558772613    6    4   10    1
 -0.2508969083889264    6    4   10    8
 0.05316008737370218    6    4   10    9
 0.04010982802570404    6    4   11    1
 -0.01072267557163257    6    4   11    8
 0.002271922655118079    6    4   11    9
 -0.1276699286912563    6    4   12    2
 -0.01319988792134465    6    4   12    3
 0.1253394754898227    6    4   12    6
 -0.02763808273203221    6    4   12    7
 -0.1223650721327414    6    4   12   10
 0.03873805435376822    6    4   12   11
 -0.01319988792134467    6    4   13    2
 0.1276699286912564    6    4   13    3
 -0.02763808273203217    6    4   13    6
 -0.125339475489823    6    4   13    7
 0.03873805435376811    6    4   13   10
 0.1223650721327418    6    4   13   11
 -0.1751538822165424    6    4   14    4
 0.04763205864548282    6    4   14    5
 -0.1813016443729355    6    4   14   12
 -0.008798250621725543    6    4   14   13
 0.03371168887829117    6    5    2    1
 -0.1783569945342947    6    5    3    1
 0.02687999694784755    6    5    4    2
 0.1255042369693162    6    5    4    3
 0.1255042369693162    6    5    5    2
 -0.0268799969478475    6    5    5    3
 0.2567009757142857    6    5    6    5
 0.03639532828079557    6    5    8    2
 0.1230821994136427    6    5    8    3
 0.00981156193155729    6    5    8    6
 0.1279749232687007    6    5    8    7
 0.1230821994136425    6    5    9    2
 -0.03639532828079555    6    5    9    3
 0.1279749232687006    6    5    9    6
 -0.009811561931557276    6    5    9    7
 0.04010982802570405    6    5   10    1
 0.01072267557163257    6    5   10    8
 -0.002271922655117857    6    5   10    9
 0.1770279558772613    6    5   11    1
 -0.2508969083889266    6    5   11    8
 0.05316008737370223    6    5   11    9
 0.01319988792134469    6    5   12    2
 -0.1276699286912565    6    5   12    3
 -0.0276380827320322    6    5   12    6
 -0.1253394754898229    6    5   12    7
 0.03873805435376822    6    5   12   10
 0.1223650721327419    6    5   12   11
 -0.1276699286912565    6    5   13    2
 -0.01319988792134461    6    5   13    3
 -0.125339475489823    6    5   13    6
 0.02763808273203217    6    5   13    7
 0.1223650721327418    6    5   13   10
 -0.03873805435376825    6    5   13   11
 0.04763205864548282    6    5   14    4
 0.1751538822165425    6    5   14    5
 0.008798250621725536    6    5   14   12
 -0.1813016443729358    6    5   14   13
 0.2567009757142854    6    6    1    1
 0.2567009757142857    6    6    2    2
 0.2567009757142859    6    6    3    3
 0.2567009757142856    6    6    4    4
 0.2567009757142857    6    6    5    5
 0.3850514635714287    6    6    6    6
 0.128350487857143    6    6    7    7
 0.1279749232687005    6    6    8    4
 0.009811561931557296    6    6    8    5
 0.3740224578800688    6    6    8    8
 -0.009811561931557241    6    6    9    4
 0.1279749232687006    6    6    9    5
 -0.05205302638262675    6    6    9    8
 0.1393794935485027    6    6    9    9
 0.1282673122319183    6    6   10    2
 -0.004619994152176221    6    6   10    3
 -0.1278360509915775    6    6   10    6
 -0.01148006097742112    6    6   10    7
 0.2567009757142859    6    6   10   10
 -0.004619994152176186    6    6   11    2
 -0.1282673122319185    6    6   11    3
 0.0114800609774211    6    6   11    6
 -0.1278360509915781    6    6   11    7
 0.2567009757142861    6    6   11   11
 0.180878278502943    6    6   12    1
 0.1253394754898227    6    6   12    4
 -0.02763808273203219    6    6   12    5
 0.2567009757142854    6    6   12   12
 -0.01519025451218164    6    6   13    1
 -0.02763808273203219    6    6   13    4
 -0.125339475489823    6    6   13    5
 0.2567009757142859    6    6   13   13
 0.1812451539467703    6    6   14    2
 0.009893919200433117    6    6   14    3
 0.2567009757142857    6    6   14   14
 -0.03371168887829114    7    1    4    2
 0.1783569945342947    7    1    4    3
 -0.1783569945342948    7    1    5    2
 -0.03371168887829111    7    1    5    3
 0.2567009757142857    7    1    7    1
 0.04724728044670066    7    1    8    2
 -0.1752580667379506    7    1    8    3
 0.1752580667379507    7    1    9    2
 0.04724728044670057    7    1    9    3
 0.04010982802570411    7    1   10    4
 0.1770279558772614    7    1   10    5
 0.1770279558772614    7    1   11    4
 -0.04010982802570408    7    1   11    5
 0.01519025451218164    7    1   12    6
 -0.1808782785029431    7    1   12    7
 -0.001048936537430985    7    1   12   10
 -0.1815119698490257    7    1   12   11
 0.1808782785029432    7    1   13    6
 0.01519025451218167    7    1   13    7
 0.1815119698490256    7    1   13   10
 -0.001048936537431017    7    1   13   11
 -0.05320861323254426    7    1   14    8
 -0.2511259333691678    7    1   14    9
 -0.02078159426473414    7    2    2    2
 0.1266569108773088    7    2    3    2
 0.02078159426473403    7    2    3    3
 -0.03371168887829114    7    2    4    1
 -0.02687999694784748    7    2    4    4
 -0.1783569945342948    7    2    5    1
 -0.1255042369693163    7    2    5    4
 0.02687999694784751    7    2    5    5
 0.2567009757142859    7    2    7    2
 0.04724728044670066    7    2    8    1
 0.03639532828079561    7    2    8    4
 0.1230821994136427    7    2    8    5
 0.1752580667379507    7    2    9    1
 0.1230821994136426    7    2    9    4
 -0.03639532828079554    7    2    9    5
 0.02532716066833907    7    2   10    2
 -0.1258267962941389    7    2   10    3
 -0.004619994152176194    7    2   10    6
 -0.1282673122319184    7    2   10    7
 -0.01607409841828585    7    2   10   10
 0.125826796294139    7    2   11    2
 0.02532716066833898    7    2   11    3
 -0.1282673122319185    7    2   11    6
 0.004619994152176177    7    2   11    7
 -0.1273399823040896    7    2   11   10
 0.01607409841828594    7    2   11   11
 0.01319988792134469    7    2   12    4
 0.1276699286912564    7    2   12    5
 -0.05270043109919773    7    2   12    8
 -0.2487274925001974    7    2   12    9
 0.01460130813886519    7    2   12   12
 -0.1276699286912564    7    2   13    4
 0.01319988792134465    7    2   13    5
 0.007336285442183643    7    2   13    8
 0.0346246860650033    7    2   13    9
 0.1275172519065577    7    2   13   12
 -0.01460130813886512    7    2   13   13
 -0.009893919200433112    7    2   14    6
 -0.1812451539467702    7    2   14    7