 &FCI NORB=  16,NELEC=10,MS2=0,
  ORBSYM=1,1,1,1,1,1,1,1,1,1,1,1,1,1,1,1
  ISYM=1,
 &END
 0.1250000000000001    1    1    1    1
 0.1250000000000002    1    1    2    2
 0.125    1    1    3    3
 0.1250000000000001    1    1    4    4
 0.1250000000000001    1    1    5    5
 0.1249999999999999    1    1    6    6
 0.1250000000000002    1    1    7    7
 0.125    1    1    8    8
 0.125    1    1    9    9
 0.1250000000000002    1    1   10   10
 0.125    1    1   11   11
 0.1250000000000001    1    1   12   12
 0.1250000000000001    1    1   13   13
 0.1250000000000002    1    1   14   14
 0.125    1    1   15   15
 0.125    1    1   16   16
 0.1250000000000002    2    1    2    1
 0.09473677546548978    2    1    6    2
 0.04493208863614664    2    1    6    3
 -0.03109485893366387    2    1    6    4
 0.05578953137272839    2    1    6    5
 -0.02020830074926076    2    1    7    2
 -0.01039158605090678    2    1    7    3
 -0.01733667016225521    2    1    7    4
 -0.01435106125072839    2    1    7    5
 0.007999363821867455    2    1    8    2
 -0.0008228802905186621    2    1    8    3
 -0.04956107309159422    2    1    8    4
 0.01711184095571252    2    1    8    5
 -0.04592012947116318    2    1    9    2
 0.0299790117507359    2    1    9    3
 -0.04857472839565053    2    1    9    4
 0.02170585620092298    2    1    9    5
 0.02718571794362014    2    1   10    2
 -0.04636351252395134    2    1   10    3
 -0.09102633376904254    2    1   10    4
 -0.04761900070018092    2    1   10    5
 0.05910003651032775    2    1   11    2
 -0.05540099633431309    2    1   11    3
 0.02679822422866381    2    1   11    4
 -0.03748005482186857    2    1   11    5
 -0.03960107344991075    2    1   12    6
 -0.06105858722153626    2    1   12    7
 0.03280418707303731    2    1   12    8
 -0.04034092196020882    2    1   12    9
 0.09423067755293345    2    1   12   10
 -0.000296761510024515    2    1   12   11
 0.03900054660971906    2    1   13    6
 -0.04408978060135122    2    1   13    7
 0.03165004185528218    2    1   13    8
 0.009195270534913749    2    1   13    9
 -0.0100978653732222    2    1   13   10
 -0.05969614421238611    2    1   13   11
 -0.02220609514689616    2    1   14    6
 -0.05224008834224277    2    1   14    7
 -0.03001425697206403    2    1   14    8
 -0.04195341394154826    2    1   14    9
 -0.06518626345670289    2    1   14   10
 -0.04394179832558317    2    1   14   11
 0.06651596462053105    2    1   15    6
 0.01163576242284821    2    1   15    7
 0.04084786700057425    2    1   15    8
 0.03261682976429293    2    1   15    9
 0.01991523380634094    2    1   15   10
 -0.04501960686167556    2    1   15   11
 0.1091666862541166    2    1   16   12
 0.04613110754761926    2    1   16   13
 0.03468627065416393    2    1   16   14
 -0.0194014988295072    2    1   16   15
 0.1250000000000002    2    2    1    1
 0.2513036618608508    2    2    2    2
 -0.01160905129406745    2    2    3    2
 0.06596113292621113    2    2    3    3
 -0.01321777173894405    2    2    4    2
 0.0008256900992438644    2    2    4    3
 0.1206975428029097    2    2    4    4
 0.009646797224584121    2    2    5    2
 0.06061380874483746    2    2    5    3
 -0.000465768994054429    2    2    5    4
 0.06203766241002925    2    2    5    5
 0.09473677546548977    2    2    6    1
 0.1846406651441047    2    2    6    6
 -0.02020830074926075    2    2    7    1
 -8.376157697784406e-05    2    2    7    6
 0.07647480956235585    2    2    7    7
 0.007999363821867455    2    2    8    1
 0.05228351201190728    2    2    8    6
 -0.007157030612525846    2    2    8    7
 0.0596882057556536    2    2    8    8
 -0.04592012947116317    2    2    9    1
 0.03820323422301936    2    2    9    6
 0.04620779402708834    2    2    9    7
 0.03156839904769054    2    2    9    8
 0.08299149902687339    2    2    9    9
 0.02718571794362016    2    2   10    1
 -0.00549726255610699    2    2   10    6
 0.004180605611901826    2    2   10    7
 0.07594967264783722    2    2   10    8
 0.0019185388406543    2    2   10    9
 0.2165540334317929    2    2   10   10
 0.05910003651032777    2    2   11    1
 -0.0331983543076811    2    2   11    6
 0.03101180170329068    2    2   11    7
 -0.03096276299769345    2    2   11    8
 -0.05321472443002968    2    2   11    9
 0.04850676479560754    2    2   11   10
 0.1296507870792204    2    2   11   11
 0.01713020225976693    2    2   12    2
 -0.05386930069667901    2    2   12    3
 -0.04769395834971648    2    2   12    4
 -0.04898729669152737    2    2   12    5
 0.2303741985054489    2    2   12   12
 0.004913085900020811    2    2   13    2
 0.04988446454696617    2    2   13    3
 -0.02515354649780151    2    2   13    4
 0.05014403263214805    2    2   13    5
 0.04733657098027162    2    2   13   12
 0.08275924113180205    2    2   13   13
 -0.02984589161937625    2    2   14    2
 0.03015000751196194    2    2   14    3
 0.0790214676638961    2    2   14    4
 0.02270115871374241    2    2   14    5
 0.01947213584198165    2    2   14   12
 0.03986394262935496    2    2   14   13
 0.106130800080329    2    2   14   14
 0.02220885153793828    2    2   15    2
 0.04306228393914203    2    2   15    3
 -0.07118483135849707    2    2   15    4
 0.04551888941207202    2    2   15    5
 -0.02838712002139274    2    2   15   12
 0.04212224803775626    2    2   15   13
 -0.03737793332251414    2    2   15   14
 0.08073576028242077    2    2   15   15
 -0.03667788469383895    2    2   16    6
 -0.0858979129541496    2    2   16    7
 0.02566066718496111    2    2   16    8
 -0.04854175689754588    2    2   16    9
 0.05738857068659597    2    2   16   10
 -0.02749579983533685    2    2   16   11
 0.1250000000000001    2    2   16   16
 0.125    3    1    3    1
 0.04493208863614664    3    1    6    2
 -0.04619779565967988    3    1    6    3
 -0.02781586352808386    3    1    6    4
 0.05056187413221817    3    1    6    5
 -0.01039158605090678    3    1    7    2
 -0.04584416846460933    3    1    7    3
 -0.06156835556039792    3    1    7    4
 0.005645853852870411    3    1    7    5
 -0.0008228802905186608    3    1    8    2
 -0.01352712895702665    3    1    8    3
 0.0925404757109283    3    1    8    4
 -0.007065934126355418    3    1    8    5
 0.0299790117507359    3    1    9    2
 0.1178787681564766    3    1    9    3
 -0.0367521468047542    3    1    9    4
 -0.02174196510097956    3    1    9    5
 -0.04636351252395134    3    1   10    2
 -0.01345379512112112    3    1   10    3
 -0.009609938297536199    3    1   10    4
 -0.003649416579037282    3    1   10    5
 -0.05540099633431309    3    1   11    2
 0.03311853905516058    3    1   11    3
 -0.01137851356328108    3    1   11    4
 0.03482386045247118    3    1   11    5
 -0.07536913723164683    3    1   12    6
 -0.0258997295902253    3    1   12    7
 0.0004247131540507063    3    1   12    8
 0.0008869986506547301    3    1   12    9
 -0.05596857895226949    3    1   12   10
 0.02440026543237066    3    1   12   11
 0.04357660914259871    3    1   13    6
 0.04872155506897619    3    1   13    7
 -0.05778687563870368    3    1   13    8
 -0.04246415527678384    3    1   13    9
 -0.01492547769813894    3    1   13   10
 0.03400825363246957    3    1   13   11
 0.006799456152388832    3    1   14    6
 -0.0103784671284186    3    1   14    7
 -0.0244803622409353    3    1   14    8
 -0.07463081546835185    3    1   14    9
 0.009082434327503431    3    1   14   10
 -0.009530970076606332    3    1   14   11
 0.00405790871524706    3    1   15    6
 -0.009622369603899361    3    1   15    7
 0.1081561650145235    3    1   15    8
 -0.08635296030487194    3    1   15    9
 -0.01425028535917655    3    1   15   10
 0.006104652305610512    3    1   15   11
 -0.03231618426444816    3    1   16   12
 0.0196171806725283    3    1   16   13
 0.009171687536921705    3    1   16   14
 -0.1187927211775733    3    1   16   15
 -0.01160905129406746    3    2    2    2
 0.06596113292621113    3    2    3    2
 0.005876923947906155    3    2    3    3
 0.0008256900992438714    3    2    4    2
 -0.005696346178855051    3    2    4    3
 -0.002392204905772677    3    2    4    4
 0.06061380874483745    3    2    5    2
 -0.00154307015480622    3    2    5    3
 0.0080129704813498    3    2    5    4
 0.008124332251934012    3    2    5    5
 0.04493208863614664    3    2    6    1
 0.08535878412980652    3    2    6    6
 -0.01039158605090678    3    2    7    1
 0.01361078145469073    3    2    7    6
 0.01228994282943735    3    2    7    7
 -0.0008228802905186638    3    2    8    1
 0.01207750952841679    3    2    8    6
 0.02970777037225342    3    2    8    7
 -0.01092067094922119    3    2    8    8
 0.02997901175073589    3    2    9    1
 0.01830912088932144    3    2    9    6
 0.03064337711110927    3    2    9    7
 -0.008079976752871022    3    2    9    8
 0.02687001923828367    3    2    9    9
 -0.04636351252395134    3    2   10    1
 -0.03533487372752873    3    2   10    6
 0.03784683756930433    3    2   10    7
 -0.02487255304432489    3    2   10    8
 0.02710412367102502    3    2   10    9
 -0.04469768422169021    3    2   10   10
 -0.05540099633431309    3    2   11    1
 -0.003888321969094333    3    2   11    6
 -0.01557935315381422    3    2   11    7
 0.02481301534722652    3    2   11    8
 0.03818263148876364    3    2   11    9
 -0.00772347232378083    3    2   11   10
 -0.06890039102661627    3    2   11   11
 -0.05386930069667901    3    2   12    2
 -0.01478408588381341    3    2   12    3
 0.06781576906989992    3    2   12    4
 -0.01644764029636417    3    2   12    5
 -0.0341183940840826    3    2   12   12
 0.04988446454696617    3    2   13    2
 -0.007727051673876341    3    2   13    3
 0.03997566922677629    3    2   13    4
 -0.005940343752950446    3    2   13    5
 -0.03326516586498717    3    2   13   12
 -0.02914017122791148    3    2   13   13
 0.03015000751196194    3    2   14    2
 -0.01357535603965085    3    2   14    3
 0.02979832618722817    3    2   14    4
 -0.01268659591810337    3    2   14    5
 0.03545569119432705    3    2   14   12
 0.001296487091737282    3    2   14   13
 0.03521479752719935    3    2   14   14
 0.04306228393914203    3    2   15    2
 -0.01658371622912818    3    2   15    3
 0.002684966520370641    3    2   15    4
 0.006325182734080736    3    2   15    5
 -0.05483575629629246    3    2   15   12
 -0.01991159517617361    3    2   15   13
 -0.02136532266546943    3    2   15   14
 0.02804376778479481    3    2   15   15
 -0.04848354759423266    3    2   16    6
 -0.006024882277223366    3    2   16    7
 -0.04453545781302404    3    2   16    8
 -0.02220300493428022    3    2   16    9
 -0.04965536356371946    3    2   16   10
 0.03026801051650548    3    2   16   11
 0.125    3    3    1    1
 0.06596113292621113    3    3    2    2
 0.005876923947906157    3    3    3    2
 0.2817372283059417    3    3    3    3
 -0.005696346178855044    3    3    4    2
 -0.01379258161777965    3    3    4    3
 0.1176053287582392    3    3    4    4
 -0.00154307015480622    3    3    5    2
 -0.03087677584280893    3    3    5    3
 -0.01576017792447334    3    3    5    4
 0.03469631000960791    3    3    5    5
 -0.04619779565967988    3    3    6    1
 0.121003849848916    3    3    6    6
 -0.04584416846460933    3    3    7    1
 0.06091657276290963    3    3    7    6
 0.07421679530336167    3    3    7    7
 -0.01352712895702665    3    3    8    1
 -0.03696913574525854    3    3    8    6
 -0.06977506794442015    3    3    8    7
 0.1954709997049435    3    3    8    8
 0.1178787681564766    3    3    9    1
 -0.05560719233065855    3    3    9    6
 -0.03249588352696711    3    3    9    7
 -0.07940025870979052    3    3    9    8
 0.2515852967177007    3    3    9    9
 -0.01345379512112112    3    3   10    1
 0.01754355736579418    3    3   10    6
 0.01947896679027182    3    3   10    7
 -0.01254600198017167    3    3   10    8
 -0.01125151309978637    3    3   10    9
 0.04861649610203946    3    3   10   10
 0.03311853905516058    3    3   11    1
 -0.01871295213795805    3    3   11    6
 0.008157835974942714    3    3   11    7
 -0.02210189400218826    3    3   11    8
 0.005326492955896617    3    3   11    9
 0.0004678378174566099    3    3   11   10
 0.05910656232303845    3    3   11   11
 -0.01478408588381341    3    3   12    2
 0.0506331493136763    3    3   12    3
 0.03166385030118664    3    3   12    4
 -0.023402823270226    3    3   12    5
 0.0889956842902354    3    3   12   12
 -0.007727051673876341    3    3   13    2
 -0.05714853011228195    3    3   13    3
 -0.06593866869704999    3    3   13    4
 0.04038984167338679    3    3   13    5
 -0.02861759410877753    3    3   13   12
 0.08943522599477235    3    3   13   13
 -0.01357535603965085    3    3   14    2
 -0.06993929826255267    3    3   14    3
 0.007587498941143081    3    3   14    4
 0.01372595513230274    3    3   14    5
 -0.01086037842427342    3    3   14   12
 0.03275721362439696    3    3   14   13
 0.05264353434409617    3    3   14   14
 -0.01658371622912818    3    3   15    2
 -0.08795729838474932    3    3   15    3
 0.1098361709416209    3    3   15    4
 0.01222960381446892    3    3   15    5
 0.03758533522659582    3    3   15   12
 -0.03828132515552877    3    3   15   13
 0.02117765205477648    3    3   15   14
 0.2689255553708962    3    3   15   15
 0.02296644487962563    3    3   16    6
 0.02272511515264998    3    3   16    7
 -0.113760256607373    3    3   16    8
 0.06969536958596395    3    3   16    9
 0.02633621234330126    3    3   16   10
 -0.007471846053131321    3    3   16   11
 0.1249999999999999    3    3   16   16
 0.1250000000000001    4    1    4    1
 -0.03109485893366387    4    1    6    2
 -0.02781586352808386    4    1    6    3
 -0.01709227218449836    4    1    6    4
 0.00116314199237068    4    1    6    5
 -0.01733667016225521    4    1    7    2
 -0.06156835556039792    4    1    7    3
 -0.03601081888957762    4    1    7    4
 -0.06384422642170079    4    1    7    5
 -0.04956107309159421    4    1    8    2
 0.0925404757109283    4    1    8    3
 -0.008110486630233359    4    1    8    4
 -0.06334163922157052    4    1    8    5
 -0.04857472839565053    4    1    9    2
 -0.0367521468047542    4    1    9    3
 -0.02704383601487298    4    1    9    4
 -0.02637786310681949    4    1    9    5
 -0.09102633376904253    4    1   10    2
 -0.009609938297536199    4    1   10    3
 -0.006088325217942821    4    1   10    4
 0.04804802605819707    4    1   10    5
 0.02679822422866381    4    1   11    2
 -0.01137851356328109    4    1   11    3
 -0.01112892851562749    4    1   11    4
 -0.05870383734951963    4    1   11    5
 0.006785868607679638    4    1   12    6
 -0.03246128874200921    4    1   12    7
 0.003299296139539377    4    1   12    8
 0.03421791606135083    4    1   12    9
 -0.06962278718604839    4    1   12   10
 -0.06468624209385576    4    1   12   11
 0.0157411166008721    4    1   13    6
 0.02943795709716277    4    1   13    7
 -0.01399365843862297    4    1   13    8
 -0.03337202537864051    4    1   13    9
 -0.02228342733416067    4    1   13   10
 -0.0821536081561527    4    1   13   11
 0.07439488130936192    4    1   14    6
 -0.06466455143740968    4    1   14    7
 0.00472451525846899    4    1   14    8
 -0.005369381730141423    4    1   14    9
 -0.04962192660878238    4    1   14   10
 0.04378412639098027    4    1   14   11
 -0.05831587796602401    4    1   15    6
 -0.02247414057676327    4    1   15    7
 0.02025295499367634    4    1   15    8
 0.08597174100007005    4    1   15    9
 -0.005866051665849991    4    1   15   10
 0.00199129612049766    4    1   15   11
 -0.05100713287264484    4    1   16   12
 0.07269135831644989    4    1   16   13
 0.0818678609238002    4    1   16   14
 0.03220081008271634    4    1   16   15
 -0.01321777173894406    4    2    2    2
 0.0008256900992438697    4    2    3    2
 -0.005696346178855051    4    2    3    3
 0.1206975428029097    4    2    4    2
 -0.002392204905772673    4    2    4    3
 0.02501890634623059    4    2    4    4
 -0.000465768994054429    4    2    5    2
 0.008012970481349796    4    2    5    3
 -0.003644308375637621    4    2    5    4
 -0.006104788428431471    4    2    5    5
 -0.03109485893366386    4    2    6    1
 -0.07028040634584934    4    2    6    6
 -0.0173366701622552    4    2    7    1
 -0.03580997469746246    4    2    7    6
 0.0506510646575777    4    2    7    7
 -0.04956107309159422    4    2    8    1
 -0.0260240761727736    4    2    8    6
 0.01195126221725482    4    2    8    7
 -0.006429730997998167    4    2    8    8
 -0.04857472839565052    4    2    9    1
 -0.02962172291787829    4    2    9    6
 0.02299070083526751    4    2    9    7
 0.03415846873867364    4    2    9    8
 0.02569600090954006    4    2    9    9
 -0.09102633376904253    4    2   10    1
 -0.02868519256624494    4    2   10    6
 0.07290319554642043    4    2   10    7
 -0.01068601284702775    4    2   10    8
 0.07779783494224908    4    2   10    9
 -0.05584487978789086    4    2   10   10
 0.02679822422866381    4    2   11    1
 -0.01906962108429939    4    2   11    6
 0.04735811110807964    4    2   11    7
 -0.04947351787039869    4    2   11    8
 -0.01778554168121479    4    2   11    9
 -0.02412638689062072    4    2   11   10
 0.05620795156462079    4    2   11   11
 -0.04769395834971647    4    2   12    2
 0.06781576906989992    4    2   12    3
 0.02504122429586741    4    2   12    4
 0.05906745616465118    4    2   12    5
 -0.0933481959895308    4    2   12   12
 -0.0251535464978015    4    2   13    2
 0.03997566922677629    4    2   13    3
 0.00913249381075327    4    2   13    4
 0.02905707384632455    4    2   13    5
 0.03461179820871749    4    2   13   12
 0.05639068770064365    4    2   13   13
 0.07902146766389612    4    2   14    2
 0.02979832618722816    4    2   14    3
 0.03619738210673384    4    2   14    4
 0.04611738983718408    4    2   14    5
 0.04497712452196288    4    2   14   12
 0.06013305774262815    4    2   14   13
 0.04767942925998456    4    2   14   14
 -0.07118483135849707    4    2   15    2
 0.002684966520370641    4    2   15    3
 -0.01911626410761061    4    2   15    4
 -0.00410824409994401    4    2   15    5
 0.03071772670033821    4    2   15   12
 0.01259112026632452    4    2   15   13
 -0.00267084430896978    4    2   15   14
 -0.01072192097109735    4    2   15   15
 0.0414307388685687    4    2   16    6
 -0.03194100703572503    4    2   16    7
 -0.004115452828249168    4    2   16    8
 0.002733948438355776    4    2   16    9
 -0.08188670023970125    4    2   16   10
 -0.07497076559913281    4    2   16   11
 0.0008256900992438714    4    3    2    2
 -0.005696346178855051    4    3    3    2
 -0.01379258161777966    4    3    3    3
 -0.002392204905772675    4    3    4    2
 0.1176053287582392    4    3    4    3
 0.02496858436797187    4    3    4    4
 0.008012970481349798    4    3    5    2
 -0.01576017792447334    4    3    5    3
 -0.006300546007438963    4    3    5    4
 -0.01200169284943605    4    3    5    5
 -0.02781586352808386    4    3    6    1
 0.006926601746902592    4    3    6    6
 -0.06156835556039792    4    3    7    1
 0.02429953340420331    4    3    7    6
 0.06417401880750204    4    3    7    7
 0.0925404757109283    4    3    8    1
 -0.08178618261950144    4    3    8    6
 -0.03677479710897966    4    3    8    7
 0.01096696474003343    4    3    8    8
 -0.0367521468047542    4    3    9    1
 -0.03829616233783228    4    3    9    6
 0.003376490960150405    4    3    9    7
 0.07674938483605989    4    3    9    8
 -0.07837457138566155    4    3    9    9
 -0.009609938297536199    4    3   10    1
 0.02294297696076002    4    3   10    6
 0.02657248716949992    4    3   10    7
 0.009123287750088039    4    3   10    8
 0.003294245383314263    4    3   10    9
 0.06475948922592073    4    3   10   10
 -0.01137851356328109    4    3   11    1
 0.005378451864363827    4    3   11    6
 -0.01763159590437869    4    3   11    7
 0.02704187932553819    4    3   11    8
 0.009112444049218833    4    3   11    9
 0.03558141014352516    4    3   11   10
 -0.06845250313469722    4    3   11   11
 0.06781576906989992    4    3   12    2
 0.03166385030118663    4    3   12    3
 0.01810139123131006    4    3   12    4
 -0.02084787934199241    4    3   12    5
 0.03462183141907717    4    3   12   12
 0.03997566922677628    4    3   13    2
 -0.06593866869704999    4    3   13    3
 -0.00935885829777465    4    3   13    4
 -0.0079442386986308    4    3   13    5
 -0.04072703320810952    4    3   13   12
 0.02648529412045485    4    3   13   13
 0.02979832618722816    4    3   14    2
 0.007587498941143083    4    3   14    3
 0.0202011424112091    4    3   14    4
 0.04148511362948976    4    3   14    5
 -0.02188066839300765    4    3   14   12
 0.03105583758662937    4    3   14   13
 0.01075920398921165    4    3   14   14
 0.002684966520370644    4    3   15    2
 0.1098361709416209    4    3   15    3
 0.01403271063186542    4    3   15    4
 -0.03997595318971125    4    3   15    5
 0.03518756404133661    4    3   15   12
 -0.06136233930733938    4    3   15   13
 -0.05481704946405509    4    3   15   14
 -0.07186632952874361    4    3   15   15
 0.06159465108148522    4    3   16    6
 0.02962556772956249    4    3   16    7
 -0.02194966916576074    4    3   16    8
 -0.09618016704889765    4    3   16    9
 0.0164362578704813    4    3   16   10
 0.005150505490330362    4    3   16   11
 0.1250000000000001    4    4    1    1
 0.1206975428029097    4    4    2    2
 -0.002392204905772677    4    4    3    2
 0.1176053287582392    4    4    3    3
 0.02501890634623059    4    4    4    2
 0.02496858436797188    4    4    4    3
 0.1453759572733669    4    4    4    4
 -0.003644308375637618    4    4    5    2
 -0.006300546007438963    4    4    5    3
 0.03093656846683817    4    4    5    4
 0.1163211711654844    4    4    5    5
 -0.01709227218449836    4    4    6    1
 0.09010625548980815    4    4    6    6
 -0.03601081888957762    4    4    7    1
 -0.003712792068860339    4    4    7    6
 0.1285680532425741    4    4    7    7
 -0.008110486630233357    4    4    8    1
 -0.0159641892899638    4    4    8    6
 -0.01425598602113171    4    4    8    7
 0.1258975514029332    4    4    8    8
 -0.02704383601487297    4    4    9    1
 -0.02193448240445761    4    4    9    6
 0.01667795196379977    4    4    9    7
 0.02553772890156959    4    4    9    8
 0.1187353090412179    4    4    9    9
 -0.006088325217942811    4    4   10    1
 -0.007320326181335924    4    4   10    6
 0.03412879248042523    4    4   10    7
 0.002854952929173944    4    4   10    8
 0.01436346819143457    4    4   10    9
 0.1485156372591087    4    4   10   10
 -0.01112892851562749    4    4   11    1
 0.008113622361073483    4    4   11    6
 0.009519665080606017    4    4   11    7
 0.02088748297308301    4    4   11    8
 0.01144179552645751    4    4   11    9
 -0.007463020703407599    4    4   11   10
 0.138177193564358    4    4   11   11
 0.0250412242958674    4    4   12    2
 0.01810139123131006    4    4   12    3
 0.009956830430181437    4    4   12    4
 0.01136698885891492    4    4   12    5
 0.1113192354385372    4    4   12   12
 0.009132493810753274    4    4   13    2
 -0.00935885829777466    4    4   13    3
 0.005894535644919858    4    4   13    4
 0.02926069512258561    4    4   13    5
 0.008967979760097076    4    4   13   12
 0.119629525319905    4    4   13   13
 0.03619738210673384    4    4   14    2
 0.0202011424112091    4    4   14    3
 0.007830243723992502    4    4   14    4
 -0.007177340062083221    4    4   14    5
 -0.008939772294782431    4    4   14   12
 0.02272278997299857    4    4   14   13
 0.1667918868692347    4    4   14   14
 -0.01911626410761061    4    4   15    2
 0.01403271063186542    4    4   15    3
 -0.005357203865819699    4    4   15    4
 -0.02065872509820079    4    4   15    5
 0.01583632319689793    4    4   15   12
 -0.01939335743410784    4    4   15   13
 -0.001892551305440198    4    4   15   14
 0.1022593523723235    4    4   15   15
 0.04008677384554753    4    4   16    6
 -0.01777593344581846    4    4   16    7
 -0.001172465286542066    4    4   16    8
 -0.01473948590413614    4    4   16    9
 -0.01855909156727721    4    4   16   10
 0.007809891970293685    4    4   16   11
 0.125    4    4   16   16
 0.1250000000000001    5    1    5    1
 0.05578953137272839    5    1    6    2
 0.05056187413221817    5    1    6    3
 0.001163141992370684    5    1    6    4
 -0.03144670762131128    5    1    6    5
 -0.01435106125072839    5    1    7    2
 0.005645853852870412    5    1    7    3
 -0.06384422642170079    5    1    7    4
 0.1020632881034476    5    1    7    5
 0.01711184095571252    5    1    8    2
 -0.007065934126355419    5    1    8    3
 -0.06334163922157052    5    1    8    4
 0.01363825176539258    5    1    8    5
 0.02170585620092297    5    1    9    2
 -0.02174196510097956    5    1    9    3
 -0.02637786310681948    5    1    9    4
 -0.04491480267044069    5    1    9    5
 -0.04761900070018092    5    1   10    2
 -0.003649416579037284    5    1   10    3
 0.04804802605819707    5    1   10    4
 -0.007643597604556129    5    1   10    5
 -0.03748005482186857    5    1   11    2
 0.03482386045247118    5    1   11    3
 -0.05870383734951963    5    1   11    4
 -0.0810896470498607    5    1   11    5
 -0.05683838752250554    5    1   12    6
 0.03434144278674513    5    1   12    7
 -0.04207284568238858    5    1   12    8
 -0.03845001984797771    5    1   12    9
 -0.02831864505997532    5    1   12   10
 -0.01191125353343835    5    1   12   11
 0.02170721064718872    5    1   13    6
 -0.1062432654638187    5    1   13    7
 -0.07040549292109816    5    1   13    8
 -0.004156783511540389    5    1   13    9
 0.02255405721583796    5    1   13   10
 0.0308579835564877    5    1   13   11
 -0.00475923175718574    5    1   14    6
 0.007256201157526114    5    1   14    7
 0.05886890268137492    5    1   14    8
 -0.007051310307204267    5    1   14    9
 -0.06889272855061447    5    1   14   10
 0.07636783842323086    5    1   14   11
 0.0514536185940529    5    1   15    6
 0.01849582335316593    5    1   15    7
 -0.01159276564971485    5    1   15    8
 0.02517130605236313    5    1   15    9
 -0.009190488960054376    5    1   15   10
 0.0454743348421128    5    1   15   11
 0.007846734543355063    5    1   16   12
 -0.08847628815112478    5    1   16   13
 0.08738075373669249    5    1   16   14
 -0.009998953365866375    5    1   16   15
 0.009646797224584124    5    2    2    2
 0.06061380874483746    5    2    3    2
 -0.001543070154806219    5    2    3    3
 -0.000465768994054429    5    2    4    2
 0.008012970481349798    5    2    4    3
 -0.003644308375637618    5    2    4    4
 0.06203766241002925    5    2    5    2
 0.008124332251934012    5    2    5    3
 -0.006104788428431467    5    2    5    4
 -0.00445941869414009    5    2    5    5
 0.05578953137272839    5    2    6    1
 0.09913785093130598    5    2    6    6
 -0.01435106125072839    5    2    7    1
 0.01711223343934771    5    2    7    6
 0.01837617346971238    5    2    7    7
 0.01711184095571252    5    2    8    1
 0.007008233334681702    5    2    8    6
 0.02474318931638596    5    2    8    7
 -0.01866875963765484    5    2    8    8
 0.02170585620092297    5    2    9    1
 0.02068233650586383    5    2    9    6
 0.03265118721323038    5    2    9    7
 0.004617714417500987    5    2    9    8
 0.01030052943563323    5    2    9    9
 -0.04761900070018092    5    2   10    1
 -0.02940905806228505    5    2   10    6
 0.03602912140986029    5    2   10    7
 -0.0113024601934073    5    2   10    8
 0.02814196465180762    5    2   10    9
 -0.02978733004327434    5    2   10   10
 -0.03748005482186857    5    2   11    1
 -0.01344385765670346    5    2   11    6
 -0.01213269477415938    5    2   11    7
 0.01075746163084955    5    2   11    8
 0.02320057748566158    5    2   11    9
 0.008520136668129352    5    2   11   10
 -0.07935846415572236    5    2   11   11
 -0.04898729669152736    5    2   12    2
 -0.01644764029636416    5    2   12    3
 0.05906745616465118    5    2   12    4
 -0.02738734067182087    5    2   12    5
 -0.01186706698274276    5    2   12   12
 0.05014403263214805    5    2   13    2
 -0.005940343752950445    5    2   13    3
 0.02905707384632456    5    2   13    4
 -0.006318528036897672    5    2   13    5
 -0.03245606553616264    5    2   13   12
 -0.0230966706835629    5    2   13   13
 0.02270115871374242    5    2   14    2
 -0.01268659591810337    5    2   14    3
 0.04611738983718408    5    2   14    4
 0.007223865552293335    5    2   14    5
 0.03988492762601015    5    2   14   12
 0.01168482017238843    5    2   14   13
 0.01937257123365661    5    2   14   14
 0.04551888941207201    5    2   15    2
 0.006325182734080736    5    2   15    3
 -0.004108244099944007    5    2   15    4
 0.01349112879880054    5    2   15    5
 -0.05226996766237672    5    2   15   12
 -0.01621850412942816    5    2   15   13
 -0.03650270551842575    5    2   15   14
 0.01559116643264928    5    2   15   15
 -0.05093470456557622    5    2   16    6
 -0.01007467306378874    5    2   16    7
 -0.04459181431687999    5    2   16    8
 -0.04097730402500838    5    2   16    9
 -0.03409865255323517    5    2   16   10
 0.01511876911502936    5    2   16   11
 0.06061380874483745    5    3    2    2
 -0.00154307015480622    5    3    3    2
 -0.03087677584280893    5    3    3    3
 0.0080129704813498    5    3    4    2
 -0.01576017792447334    5    3    4    3
 -0.006300546007438965    5    3    4    4