 &FCI NORB=  14,NELEC= 8,MS2=0,
  ORBSYM=1,1,1,1,1,1,1,1,1,1,1,1,1,1
  ISYM=1,
 &END
 0.07142861096068907    1    1    1    1
 3.436949488032359e-08    1    1    2    1
 0.07142865741767312    1    1    2    2
 -1.318537545345194e-07    1    1    3    1
 -9.5255974982833e-11    1    1    3    2
 0.07142858837520923    1    1    3    3
 3.1085499561153e-08    1    1    4    1
 9.594725368941917e-08    1    1    4    2
 4.653787798419677e-08    1    1    4    3
 0.07146616186401669    1    1    4    4
 -3.768824905891338e-08    1    1    5    1
 3.419587839802174e-08    1    1    5    2
 -7.902067977912097e-08    1    1    5    3
 -5.302672363705074e-12    1    1    5    4
 0.07139101269559361    1    1    5    5
 -1.024813688858123e-08    1    1    6    1
 -2.845291690535285e-05    1    1    6    2
 2.459121691021724e-05    1    1    6    3
 -3.96810683664893e-08    1    1    6    4
 8.947494654562571e-08    1    1    6    5
 0.0714286614090644    1    1    6    6
 -1.059684721308601e-08    1    1    7    1
 2.453120455122876e-05    1    1    7    2
 2.841874529966454e-05    1    1    7    3
 8.596327429511059e-08    1    1    7    4
 3.995053960911821e-08    1    1    7    5
 1.196283847156032e-09    1    1    7    6
 0.07142844974624009    1    1    7    7
 5.311638146188093e-05    1    1    8    1
 1.105968868569951e-09    1    1    8    2
 -8.657821294090484e-09    1    1    8    3
 1.193505799082333e-07    1    1    8    4
 -3.015213823759355e-08    1    1    8    5
 -7.614368635177476e-08    1    1    8    6
 -5.69200881046783e-08    1    1    8    7
 0.07142865370978836    1    1    8    8
 1.532300935705444e-06    1    1    9    1
 -1.205185252723534e-08    1    1    9    2
 -6.510050129179823e-10    1    1    9    3
 -8.210835911984411e-08    1    1    9    4
 -7.40765090110132e-08    1    1    9    5
 -5.694011210796712e-08    1    1    9    6
 7.929552610884405e-08    1    1    9    7
 -1.035661764681173e-10    1    1    9    8
 0.07142852084832826    1    1    9    9
 -8.284880810907613e-11    1    1   10    1
 3.726320924524055e-05    1    1   10    2
 -5.510738677215335e-06    1    1   10    3
 5.84513715727597e-09    1    1   10    4
 7.324817765785169e-09    1    1   10    5
 -7.553053184327155e-08    1    1   10    6
 5.505922328285194e-08    1    1   10    7
 4.012088179045081e-08    1    1   10    8
 -8.590608882520952e-08    1    1   10    9
 0.07146612999087944    1    1   10   10
 -2.380301560023224e-09    1    1   11    1
 -5.475460083045891e-06    1    1   11    2
 -3.707844232302398e-05    1    1   11    3
 -7.292411716153246e-09    1    1   11    4
 8.996860860477351e-09    1    1   11    5
 -2.961024089115361e-09    1    1   11    6
 -3.054919246389676e-08    1    1   11    7
 8.920232319464816e-08    1    1   11    8
 4.030446802520682e-08    1    1   11    9
 2.060955139188136e-12    1    1   11   10
 0.0713909811638862    1    1   11   11
 -8.539470660717113e-08    1    1   12    1
 2.938969062907248e-09    1    1   12    2
 1.01723049775182e-09    1    1   12    3
 -3.723346142292267e-05    1    1   12    4
 -5.571334810317713e-06    1    1   12    5
 1.049625505435137e-09    1    1   12    6
 -1.209071160378217e-08    1    1   12    7
 -2.850059204047902e-05    1    1   12    8
 2.447519460461924e-05    1    1   12    9
 -9.594337562921981e-08    1    1   12   10
 3.403898127946059e-08    1    1   12   11
 0.07142855433747144    1    1   12   12
 -7.031485092052689e-08    1    1   13    1
 -1.033264409797119e-09    1    1   13    2
 -2.12687934972311e-10    1    1   13    3
 -5.602368553956402e-06    1    1   13    4
 3.7080153513145e-05    1    1   13    5
 8.72370822108115e-09    1    1   13    6
 5.886570120239298e-10    1    1   13    7
 -2.453521270479563e-05    1    1   13    8
 -2.846707700949851e-05    1    1   13    9
 4.623558891086663e-08    1    1   13   10
 7.92001281831739e-08    1    1   13   11
 1.275509758577598e-10    1    1   13   12
 0.07142848558450486    1    1   13   13
 1.575817786154954e-09    1    1   14    1
 -1.021659996568169e-07    1    1   14    2
 8.514683669290715e-08    1    1   14    3
 1.097313117107146e-10    1    1   14    4
 -2.440188786277664e-09    1    1   14    5
 5.312248599383552e-05    1    1   14    6
 1.293999519669589e-06    1    1   14    7
 -1.018449513699032e-08    1    1   14    8
 -1.062584939655331e-08    1    1   14    9
 -3.079161520680093e-08    1    1   14   10
 -3.758455974483405e-08    1    1   14   11
 3.403425958333622e-08    1    1   14   12
 1.31910928038298e-07    1    1   14   13
 0.07142853189665616    1    1   14   14
 3.436949487945623e-08    2    1    1    1
 0.07142865741767312    2    1    2    1
 1.691326215538802e-08    2    1    2    2
 -9.525597585019474e-11    2    1    3    1
 1.254992860848236e-08    2    1    3    2
 -3.900922143727087e-08    2    1    3    3
 9.594725368941917e-08    2    1    4    1
 0.03208376404638725    2    1    4    2
 -0.03908755189449704    2    1    4    3
 -2.065955511483183e-09    2    1    4    4
 3.419587839975646e-08    2    1    5    1
 -0.03899301329165576    2    1    5    2
 -0.03200614759966911    2    1    5    3
 7.796407243756964e-09    2    1    5    4
 -1.717874063486557e-09    2    1    5    5
 -2.845291690534938e-05    2    1    6    1
 -6.600965353660559e-08    2    1    6    2
 -1.285196442671332e-08    2    1    6    3
 -0.04977050139346956    2    1    6    4
 -0.008598375091807282    2    1    6    5
 -4.309223573459309e-09    2    1    6    6
 2.45312045512331e-05    2    1    7    1
 -5.465883165349517e-09    2    1    7    2
 -4.835040233030358e-08    2    1    7    3
 -0.00859832789976997    2    1    7    4
 0.04977021990755139    2    1    7    5
 2.084909319841066e-10    2    1    7    6
 3.469425399749149e-09    2    1    7    7
 1.105968870304674e-09    2    1    8    1
 6.920231330619434e-05    2    1    8    2
 -3.910300329021399e-08    2    1    8    3
 5.194098489291407e-08    2    1    8    4
 -1.510783646969938e-08    2    1    8    5
 -0.03915957178995577    2    1    8    6
 0.03189920133512056    2    1    8    7
 1.942926670245315e-09    2    1    8    8
 -1.205185252723534e-08    2    1    9    1
 1.993895994143943e-06    2    1    9    2
 5.482955680452539e-08    2    1    9    3
 1.122162741201693e-08    2    1    9    4
 5.49182516173044e-08    2    1    9    5
 0.031899123899841    2    1    9    6
 0.03915938423231848    2    1    9    7
 3.485005879363956e-09    2    1    9    8
 -1.099987709425598e-09    2    1    9    9
 3.726320924524098e-05    2    1   10    1
 -1.284348801356555e-09    2    1   10    2
 -5.71840595839021e-09    2    1   10    3
 2.768169514047653e-05    2    1   10    4
 -2.503760998789342e-05    2    1   10    5
 -5.000512049010628e-08    2    1   10    6
 -1.173699381911905e-08    2    1   10    7
 0.04977843683710663    2    1   10    8
 0.008829905475525901    2    1   10    9
 3.001963853064074e-09    2    1   10   10
 -5.475460083042422e-06    2    1   11    1
 -9.974854060790239e-09    2    1   11    2
 3.457045066879161e-11    2    1   11    3
 2.494968316989806e-05    2    1   11    4
 2.74749903094746e-05    2    1   11    5
 -1.207346377214702e-08    2    1   11    6
 5.483624793221203e-08    2    1   11    7
 -0.00881318195539469    2    1   11    8
 0.04968415479329344    2    1   11    9
 2.313636358625831e-08    2    1   11   10
 7.687516231230651e-10    2    1   11   11
 2.938969061172525e-09    2    1   12    1
 -1.241918390567677e-05    2    1   12    2
 2.060067871421933e-05    2    1   12    3
 1.593299710916929e-09    2    1   12    4
 -9.501739764786188e-09    2    1   12    5
 5.319056360138762e-05    2    1   12    6
 1.237511386815993e-06    2    1   12    7
 -5.353268757966878e-08    2    1   12    8
 -2.090694286964456e-09    2    1   12    9
 -0.03195475787980256    2    1   12   10
 -0.0391107090734308    2    1   12   11
 3.298237347647281e-08    2    1   12   12
 -1.033264410664481e-09    2    1   13    1
 -2.05914048014991e-05    2    1   13    2
 -1.22140957984425e-05    2    1   13    3
 -5.486068831422192e-09    2    1   13    4
 3.172393589143119e-10    2    1   13    5
 -4.677399713919755e-07    2    1   13    6
 2.649169296593552e-05    2    1   13    7
 1.567051466887237e-09    2    1   13    8
 4.959827155448862e-08    2    1   13    9
 -0.03913124054432482    2    1   13   10
 0.03193791348130137    2    1   13   11
 1.090622487173384e-07    2    1   13   12
 -1.088932913096221e-08    2    1   13   13
 -1.02165999659419e-07    2    1   14    1
 2.999184468485683e-09    2    1   14    2
 9.344098437710779e-10    2    1   14    3
 -2.990159066511549e-05    2    1   14    4
 -4.386432089576245e-06    2    1   14    5
 8.653740554004363e-10    2    1   14    6
 -9.656459676148088e-09    2    1   14    7
 -5.144674463538994e-05    2    1   14    8
 4.401056855750721e-05    2    1   14    9
 -5.464249412581029e-08    2    1   14   10
 -2.720056044985819e-09    2    1   14   11
 0.07142828600574583    2    1   14   12
 0.0001802010408590684    2    1   14   13
 -3.435660577994631e-08    2    1   14   14
 0.07142865741767312    2    2    1    1
 1.691326215538802e-08    2    2    2    1
 0.1071297791206723    2    2    2    2
 1.254992860588028e-08    2    2    3    1
 -6.640818923485652e-05    2    2    3    2
 0.03572751715311512    2    2    3    3
 0.03208376404638724    2    2    4    1
 2.18157866918936e-08    2    2    4    2
 5.463524489421334e-08    2    2    4    3
 0.07147764437246712    2    2    4    4
 -0.03899301329165576    2    2    5    1
 1.60427748516212e-08    2    2    5    2
 -1.45376013215362e-08    2    2    5    3
 5.706781025949931e-08    2    2    5    4
 0.07137952066120279    2    2    5    5
 -6.600965353660559e-08    2    2    6    1
 -0.01768446205772096    2    2    6    2
 0.03107619478085872    2    2    6    3
 5.19735005380384e-09    2    2    6    4
 2.242688592300757e-08    2    2    6    5
 0.07141099708267078    2    2    6    6
 -5.465883164482155e-09    2    2    7    1
 -0.03101210281304099    2    2    7    2
 -0.01761033005603412    2    2    7    3
 2.580550210583982e-08    2    2    7    4
 -2.005567165466737e-09    2    2    7    5
 -6.397695391774545e-06    2    2    7    6
 0.07144610060148819    2    2    7    7
 6.92023133061978e-05    2    2    8    1
 2.15213228436234e-08    2    2    8    2
 -1.674144013610185e-08    2    2    8    3
 0.02346927507570644    2    2    8    4
 0.02691115665803587    2    2    8    5
 -5.251936876712882e-09    2    2    8    6
 -1.656025107234921e-08    2    2    8    7
 0.071474599848491    2    2    8    8
 1.993895994138739e-06    2    2    9    1
 -3.807971033290003e-08    2    2    9    2
 -1.903820126981232e-08    2    2    9    3
 -0.02691975421890294    2    2    9    4
 0.02346151452853872    2    2    9    5
 -2.230344907545867e-08    2    2    9    6
 1.121782307930003e-08    2    2    9    7
 1.683065557823733e-05    2    2    9    8
 0.07138258789939257    2    2    9    9
 -1.284348801790236e-09    2    2   10    1
 7.274914867021198e-05    2    2   10    2
 -3.634934254277862e-06    2    2   10    3
 2.730379478890418e-08    2    2   10    4
 7.159109862223123e-09    2    2   10    5
 -0.02336274947686803    2    2   10    6
 0.02703604132327175    2    2   10    7
 -1.761868556431068e-09    2    2   10    8
 -3.713913335288282e-09    2    2   10    9
 0.07147744467527392    2    2   10   10
 -9.974854060790239e-09    2    2   11    1
 -1.066782151619775e-05    2    2   11    2
 -2.41404446146851e-05    2    2   11    3
 -1.030615471870472e-08    2    2   11    4
 3.332406350690931e-08    2    2   11    5
 0.02699898429580104    2    2   11    6
 0.02333064057129321    2    2   11    7
 3.199818379359676e-08    2    2   11    8
 -2.683300543565581e-10    2    2   11    9
 3.707524440666604e-08    2    2   11   10
 0.07137967559217141    2    2   11   11
 -1.24191839056785e-05    2    2   12    1
 8.484697430755084e-09    2    2   12    2
 2.90899810229811e-09    2    2   12    3
 -5.412362339311718e-05    2    2   12    4
 -8.001684876586534e-06    2    2   12    5
 1.32867154795796e-08    2    2   12    6
 -2.744826466550415e-08    2    2   12    7
 -0.01748077824342465    2    2   12    8
 -0.03112298010554501    2    2   12    9
 -6.453549986507739e-08    2    2   12   10
 1.049223563760748e-08    2    2   12   11
 0.107142292113856    2    2   12   12
 -2.059140480150084e-05    2    2   13    1
 -3.507705821116647e-09    2    2   13    2
 2.482219991616769e-09    2    2   13    3
 -6.542304788496097e-06    2    2   13    4
 4.27206182846895e-05    2    2   13    5
 2.332828112020652e-08    2    2   13    6
 1.524599362468654e-08    2    2   13    7
 -0.03118680426765542    2    2   13    8
 0.01740657300108006    2    2   13    9
 -1.146456701794918e-08    2    2   13   10
 -5.319121865188237e-08    2    2   13   11
 0.0001802004062274321    2    2   13   12
 0.03571469768696006    2    2   13   13
 2.999184466750959e-09    2    2   14    1
 -9.790937619009316e-06    2    2   14    2
 1.606277617625766e-05    2    2   14    3
 1.494286902981729e-09    2    2   14    4
 -7.793420435039944e-09    2    2   14    5
 6.92442481801097e-05    2    2   14    6
 1.710806691885419e-06    2    2   14    7
 -1.904931386069453e-08    2    2   14    8
 -2.138784566379365e-08    2    2   14    9
 -0.0320668751583315    2    2   14   10
 -0.03901351717814857    2    2   14   11
 -3.364269520259033e-08    2    2   14   12
 6.977868122898245e-08    2    2   14   13
 0.07142848577456577    2    2   14   14
 -1.318537545332184e-07    3    1    1    1
 -9.525597238074779e-11    3    1    2    1
 1.254992860674764e-08    3    1    2    2
 0.07142858837520923    3    1    3    1
 -3.900922143293406e-08    3    1    3    2
 7.214960642495417e-08    3    1    3    3
 4.65378779779084e-08    3    1    4    1
 -0.03908755189449704    3    1    4    2
 -0.03208374644494273    3    1    4    3
 2.814479120811023e-08    3    1    4    4
 -7.902067977825361e-08    3    1    5    1
 -0.03200614759966911    3    1    5    2
 0.03899299214930958    3    1    5    3
 1.420313904682002e-09    3    1    5    4
 -1.357198699258877e-08    3    1    5    5
 2.459121691021811e-05    3    1    6    1
 -1.285196442584596e-08    3    1    6    2
 3.042099832456513e-08    3    1    6    3
 0.0085983714554311    3    1    6    4
 -0.049770479844336    3    1    6    5
 9.259570325770294e-09    3    1    6    6
 2.841874529966671e-05    3    1    7    1
 -4.835040232813517e-08    3    1    7    2
 -3.14063645001552e-08    3    1    7    3
 -0.04977019881408007    3    1    7    4
 -0.008598324158070481    3    1    7    5
 5.744321286867138e-09    3    1    7    6
 -6.033909959787115e-09    3    1    7    7
 -8.657821291488399e-09    3    1    8    1
 -3.910300329108135e-08    3    1    8    2
 6.910609841662575e-05    3    1    8    3
 2.65988202190811e-08    3    1    8    4
 3.319860099500194e-08    3    1    8    5
 0.03189922516192917    3    1    8    6
 0.03915951024508069    3    1    8    7
 -9.945401657600328e-09    3    1    8    8
 -6.510050142190249e-10    3    1    9    1
 5.482955680322435e-08    3    1    9    2
 1.996024182386331e-06    3    1    9    3
 -2.849023631725997e-08    3    1    9    4
 3.081942125419609e-08    3    1    9    5
 0.03915940786581591    3    1    9    6
 -0.03189906930239748    3    1    9    7
 -4.510926552431238e-09    3    1    9    8
 6.716323499092458e-09    3    1    9    9
 -5.510738677211649e-06    3    1   10    1
 -5.718405958607051e-09    3    1   10    2
 1.013322991055138e-09    3    1   10    3
 -2.511234923715383e-05    3    1   10    4
 -2.761147500312134e-05    3    1   10    5
 -2.895515941597759e-08    3    1   10    6
 3.213425968677172e-08    3    1   10    7
 -0.008829901005615213    3    1   10    8
 0.04977840825671485    3    1   10    9
 -3.730806443045121e-08    3    1   10   10
 -3.707844232302745e-05    3    1   11    1
 3.457045413823856e-11    3    1   11    2
 4.211384539275914e-09    3    1   11    3
 2.75062166746917e-05    3    1   11    4
 -2.49399049403248e-05    3    1   11    5
 2.59933995144096e-08    3    1   11    6
 2.730884133541819e-08    3    1   11    7
 -0.0496841305007983    3    1   11    8
 -0.008813177006849625    3    1   11    9
 1.80294448337906e-09    3    1   11   10
 2.286113986223887e-08    3    1   11   11
 1.017230501221267e-09    3    1   12    1
 2.06006787142202e-05    3    1   12    2
 1.222326956072575e-05    3    1   12    3
 4.098426624986329e-09    3    1   12    4
 -4.122808162573821e-10    3    1   12    5
 -5.582187476635414e-07    3    1   12    6
 2.663711315424285e-05    3    1   12    7
 -2.403326986033516e-08    3    1   12    8
 -2.81755440628001e-08    3    1   12    9
 0.03913126122585713    3    1   12   10
 -0.03193793065584215    3    1   12   11
 7.002633644042494e-08    3    1   12   12
 -2.126879332375875e-10    3    1   13    1
 -1.221409579844164e-05    3    1   13    2
 2.04297430365537e-05    3    1   13    3
 1.36873478566793e-09    3    1   13    4
 -4.618105407631912e-09    3    1   13    5
 -5.305734531408897e-05    3    1   13    6
 -1.216459479903842e-06    3    1   13    7
 -3.318522217828426e-08    3    1   13    8
 1.924178777770735e-08    3    1   13    9
 -0.03195469659506676    3    1   13   10
 -0.0391106340312913    3    1   13   11
 -3.46189744180464e-08    3    1   13   12
 -1.54724023888192e-07    3    1   13   13
 8.514683669550924e-08    3    1   14    1
 9.344098455058014e-10    3    1   14    2
 4.895343809138697e-10    3    1   14    3
 4.423834872557949e-06    3    1   14    4
 -2.971585919531866e-05    3    1   14    5
 -4.59417216162189e-09    3    1   14    6
 -2.587553366018014e-10    3    1   14    7
 4.404391729000926e-05    3    1   14    8
 5.142796839180484e-05    3    1   14    9
 -3.15603440848803e-08    3    1   14   10
 -7.840877475073782e-09    3    1   14   11
 0.00018020094738828    3    1   14   12
 -0.07142828581413194    3    1   14   13
 1.317294452442275e-07    3    1   14   14
 -9.525597411547126e-11    3    2    1    1
 1.254992860501292e-08    3    2    2    1
 -6.640818923485305e-05    3    2    2    2
 -3.900922143900559e-08    3    2    3    1
 0.03572751715311512    3    2    3    2
 6.640806640275049e-05    3    2    3    3
 -0.03908755189449704    3    2    4    1
 5.463524489681543e-08    3    2    4    2
 -4.886655575195645e-08    3    2    4    3
 -4.230171109633005e-08    3    2    4    4
 -0.03200614759966911    3    2    5    1
 -1.453760132066884e-08    3    2    5    2
 -6.334390628215739e-08    3    2    5    3
 1.390943741713668e-07    3    2    5    4
 4.234199633013774e-08    3    2    5    5
 -1.285196442671332e-08    3    2    6    1
 0.03107619478085872    3    2    6    2
 0.01761040906092782    3    2    6    3
 -5.885949552969852e-08    3    2    6    4
 2.070136896018676e-08    3    2    6    5
 6.207047383164493e-06    3    2    6    6
 -4.835040233160462e-08    3    2    7    1
 -0.01761033005603413    3    2    7    2
 0.031076040305286    3    2    7    3
 1.493887835809192e-08    3    2    7    4
 4.142388541385211e-08    3    2    7    5
 -1.771877483026235e-05    3    2    7    6
 -6.207011595333895e-06    3    2    7    7
 -3.910300329194871e-08    3    2    8    1
 -1.674144013349976e-08    3    2    8    2
 -1.802112817696558e-08    3    2    8    3
 -0.02697038342334022    3    2    8    4
 0.02342255211616152    3    2    8    5
 -4.898829376615704e-08    3    2    8    6
 2.98348715611213e-09    3    2    8    7
 -1.682047970197071e-05    3    2    8    8
 5.482955680409171e-08    3    2    9    1
 -1.903820126981232e-08    3    2    9    2
 -2.070827750163401e-09    3    2    9    3
 -0.02342991832328967    3    2    9    4
 -0.02696172992303369    3    2    9    5
 1.065638233297556e-08    3    2    9    6
 5.080767938358058e-08    3    2    9    7
 4.593814433985401e-05    3    2    9    8
 1.682051982239766e-05    3    2    9    9
 -5.718405956655487e-09    3    2   10    1
 -3.634934254278296e-06    3    2   10    2
 2.42560143313478e-05    3    2   10    3
 4.788167053820791e-09    3    2   10    4
 1.771292038521208e-08    3    2   10    5
 0.02709235254885467    3    2   10    6
 0.02331868180486926    3    2   10    7
 2.920077214925432e-08    3    2   10    8
 -2.168854169328459e-08    3    2   10    9
 -1.488280189170486e-08    3    2   10   10
 3.457045240351508e-11    3    2   11    1
 -2.414044461468336e-05    3    2   11    2
 -3.594488733475992e-06    3    2   11    3
 -1.338710775827118e-08    3    2   11    4
 6.662617331974763e-09    3    2   11    5
 0.02328677574843362    3    2   11    6
 -0.02705525433433063    3    2   11    7
 1.639257803890543e-08    3    2   11    8
 5.803319923832623e-08    3    2   11    9
 2.440256128416474e-08    3    2   11   10
 1.509495977866648e-08    3    2   11   11
 2.06006787142202e-05    3    2   12    1
 2.908998104032834e-09    3    2   12    2
 -1.675478148582821e-09    3    2   12    3
 9.008885630381117e-07    3    2   12    4
 -5.561965260784778e-06    3    2   12    5
 -4.677030924007952e-10    3    2   12    6
 -1.346266117682737e-08    3    2   12    7
 0.03121099452962756    3    2   12    8
 -0.01737781470879321    3    2   12    9
 -5.647783447556079e-08    3    2   12   10
 -4.779412495371088e-08    3    2   12   11
 0.000180200292861238    3    2   12   12
 -1.221409579844294e-05    3    2   13    1
 2.482219991183088e-09    3    2   13    2
 1.041526242638244e-09    3    2   13    3
 5.666218994053451e-06    3    2   13    4
 8.648531807649122e-07    3    2   13    5
 1.160700291089056e-08    3    2   13    6
 -8.097816847196099e-09    3    2   13    7
 -0.01737782363822181    3    2   13    8
 -0.03121092906585223    3    2   13    9
 4.451641300896869e-08    3    2   13   10
 1.575092833851904e-08    3    2   13   11
 -0.0357137877231583    3    2   13   12
 -0.0001802002778776428    3    2   13   13
 9.344098437710779e-10    3    2   14    1
 1.606277617625853e-05    3    2   14    2
 9.551401549348897e-06    3    2   14    3
 2.405015966325946e-09    3    2   14    4
 -6.466475887742518e-10    3    2   14    5
 -3.964319601236499e-08    3    2   14    6
 8.435084983965391e-08    3    2   14    7
 -2.303051360730279e-09    3    2   14    8
 3.942249428810773e-09    3    2   14    9
 0.03906698210495196    3    2   14   10
 -0.03202297318849618    3    2   14   11
 1.088623684183943e-07    3    2   14   12
 3.553733518396574e-08    3    2   14   13
 -1.25246820618756e-10    3    2   14   14
 0.07142858837520923    3    3    1    1
 -3.900922144030664e-08    3    3    2    1
 0.03572751715311512    3    3    2    2
 7.214960642126789e-08    3    3    3    1
 6.640806640274854e-05    3    3    3    2
 0.1071297403195967    3    3    3    3
 -0.03208374644494272    3    3    4    1
 -4.886655575347433e-08    3    3    4    2
 -5.919118113663011e-08    3    3    4    3
 0.07147737928297403    3    3    4    4
 0.03899299214930958    3    3    5    1
 -6.334390628259107e-08    3    3    5    2
 9.991638307092071e-08    3    3    5    3
 -5.708201273138015e-08    3    3    5    4
 0.07137982394686063    3    3    5    5
 3.042099832456513e-08    3    3    6    1
 0.01761040906092782    3    3    6    2
 -0.0310122236258017    3    3    6    3
 2.072290745144638e-08    3    3    6    4
 -7.472481821724566e-08    3    3    6    5
 0.07144635607298702    3    3    6    6
 -3.140636449625207e-08    3    3    7    1
 0.031076040305286    3    3    7    2
 0.01768436376183744    3    3    7    3
 -8.63308238115406e-08    3    3    7    4
 -2.328546720980346e-08    3    3    7    5
 6.401063626893314e-06    3    3    7    6
 0.07141074940945026    3    3    7    7
 6.910609841662228e-05    3    3    8    1
 -1.802112817696558e-08    3    3    8    2
 -1.506559352227807e-08    3    3    8    3
 -0.02346903170027633    3    3    8    4
 -0.02691127673210242    3    3    8    5
 5.870376870763597e-08    3    3    8    6
 5.319067210079673e-08    3    3    8    7
 0.07138273313243737    3    3    8    8
 1.99602418238915e-06    3    3    9    1
 -2.070827749296039e-09    3    3    9    2
 1.651625007137274e-08    3    3    9    3
 0.02691960514917141    3    3    9    4
 -0.02346173266945738    3    3    9    5
 5.885656143749321e-08    3    3    9    6
 -5.769169938627493e-08    3    3    9    7
 -1.683093359400051e-05    3    3    9    8
 0.07147444737946759    3    3    9    9
 1.013322991271978e-09    3    3   10    1
 2.425601433134715e-05    3    3   10    2
 -1.070944479530781e-05    3    3   10    3
 -5.070919601162394e-09    3    3   10    4
 1.82864417911429e-08    3    3   10    5
 0.02336261992100881    3    3   10    6
 -0.02703596299909978    3    3   10    7
 -2.440990797989914e-08    3    3   10    8
 6.40707871029907e-08    3    3   10    9
 0.07147749600684716    3    3   10   10
 4.211384544913765e-09    3    3   11    1
 -3.594488733475992e-06    3    3   11    2
 -7.243076426696098e-05    3    3   11    3
 -1.504999882465281e-08    3    3   11    4
 -4.113504843174243e-09    3    3   11    5
 -0.02699903363554253    3    3   11    6
 -0.02333074514618571    3    3   11    7
 -8.414868976581655e-08    3    3   11    8
 -2.525513947753896e-08    3    3   11    9
 -3.706850984844245e-08    3    3   11   10
 0.07137958689100311    3    3   11   11
 1.222326956072401e-05    3    3   12    1
 -1.675478147715459e-09    3    3   12    2
 -4.94413533985022e-10    3    3   12    3
 -4.280415143692118e-05    3    3   12    4
 -6.510340728080235e-06    3    3   12    5
 -9.976058829280071e-09    3    3   12    6
 -1.264679870983249e-08    3    3   12    7
 0.01740660065902172    3    3   12    8
 0.03118677196455808    3    3   12    9
 9.164721951476773e-08    3    3   12   10
 -5.759320419662303e-08    3    3   12   11
 0.03571473574634918    3    3   12   12
 2.042974303655349e-05    3    3   13    1
 1.041526244156127e-09    3    3   13    2
 -2.650520585130434e-09    3    3   13    3
 -8.040606877408093e-06    3    3   13    4
 5.385501950948756e-05    3    3   13    5
 8.752459362305898e-09    3    3   13    6
 -1.298945547390656e-08    3    3   13    7
 0.03112297912219221    3    3   13    8
 -0.01748073214563011    3    3   13    9
 6.941729132920599e-09    3    3   13   10
 -3.233537663105066e-08    3    3   13   11
 -0.0001802004174792868    3    3   13   12
 0.107142292136354    3    3   13   13
 4.89534386551721e-10    3    3   14    1
 9.551401549347596e-06    3    3   14    2
 -1.586241808392962e-05    3    3   14    3
 -1.171294567413328e-09    3    3   14    4
 1.916749807484575e-09    3    3   14    5
 6.908010901858627e-05    3    3   14    6
 1.658604645560701e-06    3    3   14    7
 -1.617799124352393e-08    3    3   14    8
 -1.549312102135797e-08    3    3   14    9
 0.03206685826095924    3    3   14   10
 0.03901349633049537    3    3   14   11
 1.17533614199701e-08    3    3   14   12
 -1.54629090858005e-07    3    3   14   13
 0.07142855414734747    3    3   14   14
 3.10854995589846e-08    4    1    1    1
 9.594725369072021e-08    4    1    2    1
 0.03208376404638724    4    1    2    2
 4.653787797964312e-08    4    1    3    1
 -0.03908755189449704    4    1    3    2
 -0.03208374644494273    4    1    3    3
 0.07146616186401669    4    1    4    1
 -2.065955513001067e-09    4    1    4    2
 2.814479120811023e-08    4    1    4    3
 1.876276668985079e-07    4    1    4    4
 -5.302675399471157e-12    4    1    5    1
 7.796407245491688e-09    4    1    5    2
 1.420313902079917e-09    4    1    5    3
 -1.160163203537973e-07    4    1    5    4
 -2.047607349751901e-07    4    1    5    5
 -3.968106836692298e-08    4    1    6    1
 -0.04977050139346956    4    1    6    2
 0.008598371455431105    4    1    6    3
 1.703760219061781e-09    4    1    6    4
 -9.958083380025989e-09    4    1    6    5
 -2.037609501770021e-05    4    1    6    6
 8.596327429532744e-08    4    1    7    1
 -0.008598327899769973    4    1    7    2
 -0.04977019881408007    4    1    7    3
 1.802784765003382e-09    4    1    7    4
 1.9125544085518e-08    4    1    7    5
 1.226126422342174e-05    4    1    7    6
 2.037254921151725e-05    4    1    7    7
 1.193505799138711e-07    4    1    8    1
 5.194098489248039e-08    4    1    8    2
 2.659882021929794e-08    4    1    8    3
 0.05050801215214226    4    1    8    4
 -0.00145644707932835    4    1    8    5
 -7.834702873878857e-09    4    1    8    6
 2.000984503569211e-08    4    1    8    7
 6.182887614030342e-05    4    1    8    8
 -8.210835912157884e-08    4    1    9    1
 1.122162741461902e-08    4    1    9    2
 -2.849023631964522e-08    4    1    9    3
 0.001457056637103039    4    1    9    4
 0.05048654413628851    4    1    9    5
 6.561432519709698e-09    4    1    9    6
 8.07860696763231e-09    4    1    9    7
 -3.642672534284698e-05    4    1    9    8
 -6.182567128811944e-05    4    1    9    9
 5.845137159010694e-09    4    1   10    1
 2.768169514047588e-05    4    1   10    2
 -2.511234923715036e-05    4    1   10    3
 1.632831947987389e-08    4    1   10    4
 -3.974849525239556e-08    4    1   10    5
 -0.0505457819391872    4    1   10    6
 -0.001231232370499911    4    1   10    7
 3.380089712962629e-08    4    1   10    8
 2.573844172472015e-08    4    1   10    9
 1.393570285546358e-08    4    1   10   10
 -7.292411714852204e-09    4    1   11    1
 2.494968316989936e-05    4    1   11    2
 2.750621667469344e-05    4    1   11    3
 3.214417887333759e-08    4    1   11    4
 1.656115797971092e-08    4    1   11    5
 -0.001229421054096281    4    1   11    6
 0.05047130718794128    4    1   11    7
 3.044296859738838e-09    4    1   11    8
 2.462477091593612e-09    4    1   11    9
 2.05970162835134e-08    4    1   11   10
 2.551654288036886e-09    4    1   11   11
 -3.723346142292441e-05    4    1   12    1