 &FCI NORB=  16,NELEC=10,MS2=0,
  ORBSYM=1,1,1,1,1,1,1,1,1,1,1,1,1,1,1,1
  ISYM=1,
 &END
 0.2500000000000001    1    1    1    1
 0.25    1    1    2    2
 0.2500000000000001    1    1    3    3
 0.2499999999999999    1    1    4    4
 0.2500000000000002    1    1    5    5
 0.2500000000000001    1    1    6    6
 0.2499999999999999    1    1    7    7
 0.2499999999999999    1    1    8    8
 0.2500000000000001    1    1    9    9
 0.25    1    1   10   10
 0.2500000000000001    1    1   11   11
 0.2500000000000001    1    1   12   12
 0.2499999999999998    1    1   13   13
 0.25    1    1   14   14
 0.2500000000000006    1    1   15   15
 0.2500000000000001    1    1   16   16
 0.25    2    1    2    1
 -0.09814600443406407    2    1    6    2
 -0.02774313629495137    2    1    6    3
 -0.003361148277609235    2    1    6    4
 0.06740354538128938    2    1    6    5
 0.1363155881251304    2    1    7    2
 -0.07658856575993968    2    1    7    3
 0.1702663792250368    2    1    7    4
 0.08338380711961849    2    1    7    5
 0.06871103760973203    2    1    8    2
 -0.1780269911792568    2    1    8    3
 -0.08977969636191944    2    1    8    4
 -0.04698473375617387    2    1    8    5
 -0.0648064931390418    2    1    9    2
 0.009262068325284402    2    1    9    3
 -0.03383946504969522    2    1    9    4
 0.002708187047901694    2    1    9    5
 0.05752112757300898    2    1   10    2
 -0.08853402475643647    2    1   10    3
 -0.06907300966024785    2    1   10    4
 -0.04984087144012528    2    1   10    5
 -0.09116354923419881    2    1   11    2
 -0.09279408450917501    2    1   11    3
 -0.0144459711688559    2    1   11    4
 0.1565204255161039    2    1   11    5
 0.08634266876904348    2    1   12    6
 0.1706808094346832    2    1   12    7
 -0.01705003552988156    2    1   12    8
 0.07920194974138342    2    1   12    9
 0.117399000193104    2    1   12   10
 0.01585624365765087    2    1   12   11
 -0.06945502191351162    2    1   13    6
 -0.05456302054702352    2    1   13    7
 -0.2336668176807454    2    1   13    8
 0.06763014542698767    2    1   13    9
 0.04748458028094291    2    1   13   10
 -0.01731311990689958    2    1   13   11
 -0.08031260485168426    2    1   14    6
 -0.08748894433730058    2    1   14    7
 0.112632831022374    2    1   14    8
 0.1538293097748847    2    1   14    9
 0.07917195443735206    2    1   14   10
 -0.0497528702509261    2    1   14   11
 -0.009979084916484086    2    1   15    6
 -0.005610188827732876    2    1   15    7
 0.01372186287709357    2    1   15    8
 -0.02997841020909458    2    1   15    9
 0.00140038813746902    2    1   15   10
 0.01918687045908776    2    1   15   11
 0.1079121799171273    2    1   16   12
 0.1919209975703124    2    1   16   13
 0.05641688276821838    2    1   16   14
 0.1041077684703055    2    1   16   15
 0.25    2    2    1    1
 0.4450205552836191    2    2    2    2
 -0.06873255080808335    2    2    3    2
 0.219455604696462    2    2    3    3
 0.06763117786152775    2    2    4    2
 0.04071355601772004    2    2    4    3
 0.172748828929489    2    2    4    4
 -0.06315445804774278    2    2    5    2
 -0.03991261757006644    2    2    5    3
 0.07711642633291554    2    2    5    4
 0.1627750110904302    2    2    5    5
 -0.09814600443406407    2    2    6    1
 0.135142432794254    2    2    6    6
 0.1363155881251303    2    2    7    1
 0.07761284932044289    2    2    7    6
 0.400744394702649    2    2    7    7
 0.06871103760973202    2    2    8    1
 0.003618236810047259    2    2    8    6
 0.01482132560936249    2    2    8    7
 0.4577924196170864    2    2    8    8
 -0.06480649313904181    2    2    9    1
 -0.01405680232948935    2    2    9    6
 -0.0741657580009441    2    2    9    7
 -0.01371764796804379    2    2    9    8
 0.1633882326894928    2    2    9    9
 0.05752112757300896    2    2   10    1
 -0.02340209679784941    2    2   10    6
 0.03686925814975946    2    2   10    7
 0.09638498290209599    2    2   10    8
 0.08920507610192106    2    2   10    9
 0.1628384674137718    2    2   10   10
 -0.09116354923419882    2    2   11    1
 0.1139847696497587    2    2   11    6
 0.05267102211738176    2    2   11    7
 0.01053367632766659    2    2   11    8
 -0.008729718657783887    2    2   11    9
 -0.02681778424352134    2    2   11   10
 0.180094052782746    2    2   11   11
 0.05518140856219833    2    2   12    2
 -0.0942553841345439    2    2   12    3
 0.07713370881099887    2    2   12    4
 0.07079184115423834    2    2   12    5
 0.2753185279903357    2    2   12   12
 -0.06699890936541204    2    2   13    2
 0.1829350130003486    2    2   13    3
 0.02641348254585409    2    2   13    4
 -0.01258315423358932    2    2   13    5
 0.08016563552266256    2    2   13   12
 0.4254533613179819    2    2   13   13
 0.01126377311246578    2    2   14    2
 -0.04836307942253678    2    2   14    3
 -0.1387761710673709    2    2   14    4
 -0.1172691208963957    2    2   14    5
 0.01195992992230179    2    2   14   12
 0.03954050821034371    2    2   14   13
 0.2495218087126748    2    2   14   14
 0.005726795558536713    2    2   15    2
 -0.01567362677202565    2    2   15    3
 -0.006052314693267983    2    2   15    4
 0.004268042964562805    2    2   15    5
 0.02910261168051025    2    2   15   12
 0.06192078868104182    2    2   15   13
 0.01302382108910707    2    2   15   14
 0.04970630197900736    2    2   15   15
 -0.03832935423975076    2    2   16    6
 0.009707324506149013    2    2   16    7
 -0.1556101180121258    2    2   16    8
 0.1083363390927263    2    2   16    9
 0.1055779848146491    2    2   16   10
 -0.009684276024387251    2    2   16   11
 0.2499999999999999    2    2   16   16
 0.2500000000000001    3    1    3    1
 -0.02774313629495137    3    1    6    2
 0.09877904890738133    3    1    6    3
 -0.1288396788738884    3    1    6    4
 0.08585773919696436    3    1    6    5
 -0.07658856575993968    3    1    7    2
 -0.03715003729810289    3    1    7    3
 0.001987151090600299    3    1    7    4
 0.04195436435225193    3    1    7    5
 -0.1780269911792568    3    1    8    2
 0.1014411282342848    3    1    8    3
 -0.02010175618565793    3    1    8    4
 0.0256599591430396    3    1    8    5
 0.009262068325284402    3    1    9    2
 -0.07531041923927753    3    1    9    3
 -0.07741955095712635    3    1    9    4
 0.1453715889215797    3    1    9    5
 -0.08853402475643646    3    1   10    2
 -0.200084535974875    3    1   10    3
 -0.01279913255710085    3    1   10    4
 -0.03632329286377592    3    1   10    5
 -0.09279408450917502    3    1   11    2
 -0.07438453373619228    3    1   11    3
 0.06183882640123588    3    1   11    4
 -0.02716725110117187    3    1   11    5
 0.1444344133572778    3    1   12    6
 -0.01590960479392602    3    1   12    7
 0.07144809445751045    3    1   12    8
 0.06814571245107437    3    1   12    9
 0.05063749599082502    3    1   12   10
 0.1165506646092367    3    1   12   11
 -0.07711665724470683    3    1   13    6
 0.1431330699436662    3    1   13    7
 0.1232903119947547    3    1   13    8
 -0.04473876549368684    3    1   13    9
 0.1228582424362232    3    1   13   10
 -0.002370250593840738    3    1   13   11
 0.02584869198872944    3    1   14    6
 0.001679827270276378    3    1   14    7
 0.05782446595455992    3    1   14    8
 0.0826821444387221    3    1   14    9
 -0.01318677331148996    3    1   14   10
 0.08379590178653126    3    1   14   11
 0.1519870713031271    3    1   15    6
 0.02987780905837632    3    1   15    7
 0.0823519970256041    3    1   15    8
 0.06419798552992023    3    1   15    9
 -0.1102184663776167    3    1   15   10
 -0.1290817621245475    3    1   15   11
 0.1583771662193789    3    1   16   12
 -0.1573443839200218    3    1   16   13
 0.0704822538752773    3    1   16   14
 0.08770216620933016    3    1   16   15
 -0.06873255080808335    3    2    2    2
 0.219455604696462    3    2    3    2
 0.0238590893550376    3    2    3    3
 0.04071355601772004    3    2    4    2
 0.006714780621357681    3    2    4    3
 0.02074685097928823    3    2    4    4
 -0.03991261757006645    3    2    5    2
 -0.01232041512118761    3    2    5    3
 0.01013285384275594    3    2    5    4
 0.02412661047375747    3    2    5    5
 -0.02774313629495137    3    2    6    1
 0.08174770719899699    3    2    6    6
 -0.07658856575993968    3    2    7    1
 -0.001517354756202492    3    2    7    6
 -0.05839244395968969    3    2    7    7
 -0.1780269911792568    3    2    8    1
 0.03438214719672496    3    2    8    6
 -0.1334935906085203    3    2    8    7
 -0.2083066647989956    3    2    8    8
 0.009262068325284402    3    2    9    1
 0.05179700152046279    3    2    9    6
 0.04979392953522302    3    2    9    7
 0.1345994805672418    3    2    9    8
 0.05952689987212997    3    2    9    9
 -0.08853402475643646    3    2   10    1
 0.03933173029731628    3    2   10    6
 0.007035835461754763    3    2   10    7
 -0.000704024954565681    3    2   10    8
 0.07125719971544428    3    2   10    9
 0.103585854938332    3    2   10   10
 -0.09279408450917502    3    2   11    1
 0.05567272933272933    3    2   11    6
 0.0589069466815875    3    2   11    7
 0.03529854100033581    3    2   11    8
 0.1159568360104589    3    2   11    9
 0.07341795714616642    3    2   11   10
 0.02183864674922658    3    2   11   11
 -0.0942553841345439    3    2   12    2
 -0.1207017695377943    3    2   12    3
 -0.0683852430162207    3    2   12    4
 0.08382044979725153    3    2   12    5
 0.1552725664995357    3    2   12   12
 0.1829350130003486    3    2   13    2
 -0.1673738593579564    3    2   13    3
 0.02649188482993207    3    2   13    4
 -0.02268493494725995    3    2   13    5
 0.03813033870279702    3    2   13   12
 -0.2344438408153894    3    2   13   13
 -0.04836307942253678    3    2   14    2
 -0.06793029297077825    3    2   14    3
 -0.03235963509250371    3    2   14    4
 0.05264970371705441    3    2   14    5
 0.06187082029148902    3    2   14   12
 0.006573024695972783    3    2   14   13
 0.06308883288619763    3    2   14   14
 -0.01567362677202564    3    2   15    2
 0.004659758705038741    3    2   15    3
 0.01795282046470205    3    2   15    4
 -0.0226807259881672    3    2   15    5
 0.06552352579465938    3    2   15   12
 -0.05301872486529007    3    2   15   13
 0.02789789755469834    3    2   15   14
 0.0160824414296564    3    2   15   15
 0.07226905627235575    3    2   16    6
 0.1158347363199387    3    2   16    7
 0.172831512195701    3    2   16    8
 0.04046248697048688    3    2   16    9
 0.06729969521284621    3    2   16   10
 0.01364569917143047    3    2   16   11
 0.2500000000000001    3    3    1    1
 0.2194556046964619    3    3    2    2
 0.02385908935503761    3    3    3    2
 0.5406650716526776    3    3    3    3
 0.006714780621357677    3    3    4    2
 -0.04419229373989836    3    3    4    3
 0.1079573493553228    3    3    4    4
 -0.01232041512118761    3    3    5    2
 0.03146348808497648    3    3    5    3
 -0.09585604619650877    3    3    5    4
 0.1319219742955377    3    3    5    5
 0.09877904890738134    3    3    6    1
 0.340298798616625    3    3    6    6
 -0.03715003729810288    3    3    7    1
 -0.02780052666107677    3    3    7    6
 0.1225829906562301    3    3    7    7
 0.1014411282342848    3    3    8    1
 0.1383009906789631    3    3    8    6
 0.119882938133861    3    3    8    7
 0.2939091108046494    3    3    8    8
 -0.07531041923927753    3    3    9    1
 0.1597884591063619    3    3    9    6
 0.01041105315249795    3    3    9    7
 0.02167573608724751    3    3    9    8
 0.2019489780403798    3    3    9    9
 -0.200084535974875    3    3   10    1
 -0.1521232440812052    3    3   10    6
 0.1045148181681976    3    3   10    7
 0.01486332200846293    3    3   10    8
 -0.001011766654603848    3    3   10    9
 0.3173423981211089    3    3   10   10
 -0.07438453373619228    3    3   11    1
 -0.0620363188563472    3    3   11    6
 0.0117759941171628    3    3   11    7
 0.03713770965169741    3    3   11    8
 0.01078276223414714    3    3   11    9
 0.1681070986417953    3    3   11   10
 0.2239177237610062    3    3   11   11
 -0.1207017695377943    3    3   12    2
 -0.007310068806101411    3    3   12    3
 -0.07517320225585887    3    3   12    4
 0.0738698350019755    3    3   12    5
 0.2883784952575602    3    3   12   12
 -0.1673738593579564    3    3   13    2
 -0.0858585194125811    3    3   13    3
 0.03794545315490729    3    3   13    4
 -0.03341739465423253    3    3   13    5
 -0.1065206603423833    3    3   13   12
 0.333972534717303    3    3   13   13
 -0.06793029297077824    3    3   14    2
 -0.005859175981060998    3    3   14    3
 -0.02215986972808739    3    3   14    4
 0.05598270884358934    3    3   14    5
 0.1349363972890723    3    3   14   12
 -0.04492613759986416    3    3   14   13
 0.0920574993081103    3    3   14   14
 0.004659758705038746    3    3   15    2
 0.1963079052207748    3    3   15    3
 -0.1308790265387594    3    3   15    4
 0.1330351085402399    3    3   15    5
 0.09999919325246685    3    3   15   12
 -0.10879160725282    3    3   15   13
 0.04346877409996552    3    3   15   14
 0.2855914707170266    3    3   15   15
 0.2006418219056542    3    3   16    6
 -0.08920862497464493    3    3   16    7
 0.01285902307301776    3    3   16    8
 0.1171601784579195    3    3   16    9
 -0.08762825243230227    3    3   16   10
 0.05366913387282372    3    3   16   11
 0.2499999999999999    3    3   16   16
 0.2499999999999999    4    1    4    1
 -0.00336114827760924    4    1    6    2
 -0.1288396788738884    4    1    6    3
 0.1480819160466513    4    1    6    4
 -0.03856686262203262    4    1    6    5
 0.1702663792250368    4    1    7    2
 0.001987151090600298    4    1    7    3
 -0.04228437327604786    4    1    7    4
 0.0802111229379618    4    1    7    5
 -0.08977969636191944    4    1    8    2
 -0.02010175618565793    4    1    8    3
 -0.1491059191052144    4    1    8    4
 -0.02514762058898947    4    1    8    5
 -0.03383946504969523    4    1    9    2
 -0.07741955095712635    4    1    9    3
 -0.05283281501642174    4    1    9    4
 0.0958585544476528    4    1    9    5
 -0.06907300966024785    4    1   10    2
 -0.01279913255710084    4    1   10    3
 0.1899926674295521    4    1   10    4
 0.07126506129287599    4    1   10    5
 -0.01444597116885591    4    1   11    2
 0.06183882640123588    4    1   11    3
 0.0342505826382146    4    1   11    4
 -0.09215114987857272    4    1   11    5
 -0.0855843394770284    4    1   12    6
 0.1485211065437557    4    1   12    7
 -0.01050347076238359    4    1   12    8
 -0.03535484329045063    4    1   12    9
 -0.01012348853343426    4    1   12   10
 0.1135243240596214    4    1   12   11
 0.06664232600149476    4    1   13    6
 0.13464529440189    4    1   13    7
 -0.05493346398326494    4    1   13    8
 0.01967589178317842    4    1   13    9
 -0.06109207062434893    4    1   13   10
 -0.03678599436857034    4    1   13   11
 0.1422773024671212    4    1   14    6
 -0.09895518918453139    4    1   14    7
 -0.03193443898340359    4    1   14    8
 -0.03154777326723343    4    1   14    9
 0.06728454162727622    4    1   14   10
 0.1202398777229444    4    1   14   11
 0.1145514977833902    4    1   15    6
 0.01292479793114537    4    1   15    7
 -0.1061009128779131    4    1   15    8
 0.01326206846875937    4    1   15    9
 0.1819466605715552    4    1   15   10
 -0.06199667128306004    4    1   15   11
 0.1599793223488947    4    1   16   12
 0.0248904967016204    4    1   16   13
 -0.1242918282324359    4    1   16   14
 -0.1443558832516837    4    1   16   15
 0.06763117786152774    4    2    2    2
 0.04071355601772004    4    2    3    2
 0.006714780621357679    4    2    3    3
 0.172748828929489    4    2    4    2
 0.02074685097928823    4    2    4    3
 -0.02456384941746973    4    2    4    4
 0.07711642633291553    4    2    5    2
 0.01013285384275594    4    2    5    3
 0.03683820218022508    4    2    5    4
 -0.04978210906541521    4    2    5    5
 -0.003361148277609232    4    2    6    1
 -0.09512389156499827    4    2    6    6
 0.1702663792250368    4    2    7    1
 0.0002913267388176826    4    2    7    6
 0.1965379737517025    4    2    7    7
 -0.08977969636191944    4    2    8    1
 0.05882947121109335    4    2    8    6
 -0.1343587416175525    4    2    8    7
 0.07976192517688588    4    2    8    8
 -0.03383946504969522    4    2    9    1
 0.04035989725347437    4    2    9    6
 -0.01643314319879303    4    2    9    7
 0.01732365590589078    4    2    9    8
 -0.0127865921296331    4    2    9    9
 -0.06907300966024785    4    2   10    1
 0.02979542545486875    4    2   10    6
 0.09821731602334187    4    2   10    7
 0.006598200291256519    4    2   10    8
 -0.007664082829465877    4    2   10    9
 -0.07209140379147706    4    2   10   10
 -0.01444597116885591    4    2   11    1
 -0.01322146689444878    4    2   11    6
 0.01061672983007896    4    2   11    7
 0.03442173180188692    4    2   11    8
 0.1078353956907515    4    2   11    9
 0.06773998163071422    4    2   11   10
 -0.09629801144247922    4    2   11   11
 0.07713370881099886    4    2   12    2
 -0.0683852430162207    4    2   12    3
 0.1070979632540747    4    2   12    4
 0.1011470465549453    4    2   12    5
 0.1328573350536941    4    2   12   12
 0.0264134825458541    4    2   13    2
 0.02649188482993207    4    2   13    3
 0.1268755307236677    4    2   13    4
 0.06256243609666666    4    2   13    5
 0.1046439307088946    4    2   13   12
 0.01881788365736826    4    2   13   13
 -0.1387761710673708    4    2   14    2
 -0.03235963509250371    4    2   14    3
 -0.07910744189022832    4    2   14    4
 0.07288081873401582    4    2   14    5
 -0.04066489214955656    4    2   14   12
 -0.08758040707390516    4    2   14   13
 -0.07554560825647573    4    2   14   14
 -0.006052314693267979    4    2   15    2
 0.01795282046470205    4    2   15    3
 -0.003117763605773264    4    2   15    4
 -0.01980876098525713    4    2   15    5
 0.07902266674249232    4    2   15   12
 -0.003856492094961033    4    2   15   13
 -0.04358232534141532    4    2   15   14
 -0.07612961045458633    4    2   15   15
 0.09402804699962025    4    2   16    6
 0.1505252966144414    4    2   16    7
 -0.09809563362841196    4    2   16    8
 -0.001752576413682948    4    2   16    9
 0.03968298422383219    4    2   16   10
 0.0220795061310161    4    2   16   11
 0.04071355601772004    4    3    2    2
 0.006714780621357675    4    3    3    2
 -0.04419229373989836    4    3    3    3
 0.02074685097928823    4    3    4    2
 0.1079573493553228    4    3    4    3
 -0.04955597521716013    4    3    4    4
 0.01013285384275595    4    3    5    2
 -0.0958560461965088    4    3    5    3
 -0.03359252405351797    4    3    5    4
 0.05303471293933858    4    3    5    5
 -0.1288396788738884    4    3    6    1
 -0.1257441229451527    4    3    6    6
 0.001987151090600292    4    3    7    1
 0.07312768053315792    4    3    7    6
 0.02918447988470475    4    3    7    7
 -0.02010175618565792    4    3    8    1
 0.01329828347409389    4    3    8    6
 -0.01859146274756863    4    3    8    7
 -0.007245450103807768    4    3    8    8
 -0.07741955095712635    4    3    9    1
 0.01161977675270241    4    3    9    6
 0.05242620940873147    4    3    9    7
 0.003441223367062988    4    3    9    8
 0.07398353211732768    4    3    9    9
 -0.01279913255710084    4    3   10    1
 0.05973548870332773    4    3   10    6
 0.02439629821248077    4    3   10    7
 0.07850789216804363    4    3   10    8
 0.06104827222223852    4    3   10    9
 -0.1012141736161108    4    3   10   10
 0.06183882640123588    4    3   11    1
 0.02841366669925932    4    3   11    6
 -0.05484304898301055    4    3   11    7
 0.04485871372388084    4    3   11    8
 -0.02198058347950201    4    3   11    9
 -0.006833802201432083    4    3   11   10
 0.1310357346630389    4    3   11   11
 -0.0683852430162207    4    3   12    2
 -0.07517320225585887    4    3   12    3
 0.08567947933317981    4    3   12    4
 -0.03697001214028587    4    3   12    5
 0.08068723642545597    4    3   12   12
 0.02649188482993207    4    3   13    2
 0.0379454531549073    4    3   13    3
 -0.04092212861832868    4    3   13    4
 0.06415952765800788    4    3   13    5
 0.005841331758920343    4    3   13   12
 -0.01941972144212793    4    3   13   13
 -0.03235963509250372    4    3   14    2
 -0.02215986972808738    4    3   14    3
 -0.0354757558756611    4    3   14    4
 -0.01220865568118221    4    3   14    5
 0.06171498879205407    4    3   14   12
 -0.0004937018923341337    4    3   14   13
 -0.002062400352215188    4    3   14   14
 0.01795282046470205    4    3   15    2
 -0.1308790265387594    4    3   15    3
 -0.07915833674560611    4    3   15    4
 0.01863257791100558    4    3   15    5
 -0.04485004259758862    4    3   15   12
 0.09822310515751434    4    3   15   13
 -0.07929943564036129    4    3   15   14
 -0.05920511463111301    4    3   15   15
 -0.01586384574211088    4    3   16    6
 -0.01401752362891919    4    3   16    7
 -0.01830451607899217    4    3   16    8
 -0.03902294797866881    4    3   16    9
 0.1148345888005654    4    3   16   10
 0.1072210623226005    4    3   16   11
 0.2499999999999999    4    4    1    1
 0.172748828929489    4    4    2    2
 0.02074685097928823    4    4    3    2
 0.1079573493553228    4    4    3    3
 -0.02456384941746973    4    4    4    2
 -0.04955597521716014    4    4    4    3
 0.5940416785048771    4    4    4    4
 0.03683820218022509    4    4    5    2
 -0.03359252405351797    4    4    5    3
 -0.0001357666175230152    4    4    5    4
 0.12525214321031    4    4    5    5
 0.1480819160466512    4    4    6    1
 0.3406294885718897    4    4    6    6
 -0.04228437327604787    4    4    7    1
 -0.1060795377875811    4    4    7    6
 0.3494537415673541    4    4    7    7
 -0.1491059191052144    4    4    8    1
 -0.150711536845507    4    4    8    6
 -0.07282580615446466    4    4    8    7
 0.1869386915362108    4    4    8    8
 -0.05283281501642176    4    4    9    1
 -0.0002574912093911202    4    4    9    6
 0.01879563381798883    4    4    9    7
 0.03580905303406195    4    4    9    8
 0.08770926075340871    4    4    9    9
 0.1899926674295521    4    4   10    1
 0.2179105164537022    4    4   10    6
 -0.1125582304867908    4    4   10    7
 -0.1666144367621983    4    4   10    8
 -0.00172799966553842    4    4   10    9
 0.350309376176812    4    4   10   10
 0.03425058263821461    4    4   11    1
 -0.005818725854523049    4    4   11    6
 -0.04787419542383375    4    4   11    7
 0.003323186008230231    4    4   11    8
 -0.09717862952235869    4    4   11    9
 -0.007780745174282763    4    4   11   10
 0.1849594413943231    4    4   11   11
 0.1070979632540747    4    4   12    2
 0.08567947933317981    4    4   12    3
 -0.05421881468800983    4    4   12    4
 0.003623957176042383    4    4   12    5
 0.2773085073893659    4    4   12   12
 0.1268755307236676    4    4   13    2
 -0.04092212861832868    4    4   13    3
 -0.00616193550006446    4    4   13    4
 0.04213421922882886    4    4   13    5
 0.05839922860722911    4    4   13   12
 0.1267214736121338    4    4   13   13
 -0.07910744189022834    4    4   14    2
 -0.0354757558756611    4    4   14    3
 0.1943327226807915    4    4   14    4
 -0.08772300327988959    4    4   14    5
 -0.1293519200808674    4    4   14   12
 -0.05734400880110678    4    4   14   13
 0.2659333078294208    4    4   14   14
 -0.003117763605773259    4    4   15    2
 -0.07915833674560611    4    4   15    3
 0.2559247971150916    4    4   15    4
 0.07695117342514977    4    4   15    5
 -0.1568507240499265    4    4   15   12
 0.01214278603679321    4    4   15   13
 0.1628758752053713    4    4   15   14
 0.330036711169079    4    4   15   15
 -0.1850122108705061    4    4   16    6
 0.1501809799648358    4    4   16    7
 0.0649512858326554    4    4   16    8
 -0.01263851337332909    4    4   16    9
 -0.1510726015995712    4    4   16   10
 0.04500269109911578    4    4   16   11
 0.2499999999999999    4    4   16   16
 0.2500000000000002    5    1    5    1
 0.06740354538128938    5    1    6    2
 0.08585773919696436    5    1    6    3
 -0.03856686262203261    5    1    6    4
 -0.1487149605199688    5    1    6    5
 0.08338380711961847    5    1    7    2
 0.04195436435225193    5    1    7    3
 0.0802111229379618    5    1    7    4
 -0.05688117755097952    5    1    7    5
 -0.04698473375617388    5    1    8    2
 0.0256599591430396    5    1    8    3
 -0.02514762058898947    5    1    8    4
 -0.02104624673880253    5    1    8    5
 0.002708187047901692    5    1    9    2
 0.1453715889215797    5    1    9    3
 0.09585855444765283    5    1    9    4
 0.1929497273947409    5    1    9    5
 -0.04984087144012528    5    1   10    2
 -0.03632329286377592    5    1   10    3
 0.07126506129287599    5    1   10    4
 -0.04742925902768645    5    1   10    5
 0.1565204255161039    5    1   11    2
 -0.02716725110117187    5    1   11    3
 -0.09215114987857272    5    1   11    4
 0.1312975003321766    5    1   11    5
 0.04045081701125941    5    1   12    6
 0.07885467038769889    5    1   12    7
 -0.05897622447757224    5    1   12    8
 -0.04822028839068454    5    1   12    9
 -0.04083270035719973    5    1   12   10
 -0.155709145366101    5    1   12   11
 -0.005516592487885857    5    1   13    6
 0.05287624314382265    5    1   13    7
 -0.05282129291178458    5    1   13    8
 -0.07927661832707002    5    1   13    9
 -0.01482987881824044    5    1   13   10
 0.126698431277027    5    1   13   11
 0.03581158224387499    5    1   14    6
 0.03736948424249846    5    1   14    7
 -0.06050432644117923    5    1   14    8
 0.1102292846924463    5    1   14    9
 -0.1711391748742611    5    1   14   10
 0.1069676759657772    5    1   14   11
 0.08668804708261706    5    1   15    6
 -0.05488135570861869    5    1   15    7
 0.03833459170868649    5    1   15    8
 -0.220043667471584    5    1   15    9
 -0.008357632908761452    5    1   15   10
 -0.00705054761725407    5    1   15   11
 -0.01335106986878703    5    1   16   12
 -0.01701583716398984    5    1   16   13
 -0.1972331834707759    5    1   16   14
 0.1520897154871121    5    1   16   15
 -0.06315445804774278    5    2    2    2
 -0.03991261757006645    5    2    3    2
 -0.01232041512118761    5    2    3    3
 0.07711642633291554    5    2    4    2
 0.01013285384275595    5    2    4    3
 0.03683820218022507    5    2    4    4
 0.1627750110904302    5    2    5    2
 0.02412661047375747    5    2    5    3
 -0.04978210906541521    5    2    5    4
 0.03863667098870538    5    2    5    5
 0.06740354538128938    5    2    6    1
 -0.07502816224385643    5    2    6    6
 0.08338380711961846    5    2    7    1
 -0.05107560205761032    5    2    7    6
 0.09871978369320503    5    2    7    7
 -0.04698473375617389    5    2    8    1
 0.022474658939851    5    2    8    6
 -0.06604938662512454    5    2    8    7
 0.01003776596006433    5    2    8    8
 0.002708187047901687    5    2    9    1
 0.01228065472729091    5    2    9    6
 0.03732670048760527    5    2    9    7
 -0.05849331041104652    5    2    9    8
 0.05128839703212065    5    2    9    9
 -0.04984087144012528    5    2   10    1
 0.05518164597557976    5    2   10    6
 0.05210620497463226    5    2   10    7
 -0.06542767354373787    5    2   10    8
 -0.1198363380976935    5    2   10    9
 -0.08507467253694892    5    2   10   10
 0.1565204255161039    5    2   11    1
 -0.1448527163506163    5    2   11    6
 -0.09653531501784515    5    2   11    7
 0.01078584687797529    5    2   11    8
 0.02392420953989134    5    2   11    9
 0.02969889274350151    5    2   11   10
 5.688809541541488e-05    5    2   11   11
 0.07079184115423832    5    2   12    2
 0.08382044979725153    5    2   12    3
 0.1011470465549453    5    2   12    4
 -0.04157760227847868    5    2   12    5
 0.02173837171883533    5    2   12   12
 -0.01258315423358933    5    2   13    2
 -0.02268493494725995    5    2   13    3
 0.06256243609666666    5    2   13    4
 0.1074972379997007    5    2   13    5
 0.006408468047414219    5    2   13   12
 -0.00673708176774269    5    2   13   13
 -0.1172691208963957    5    2   14    2
 0.05264970371705439    5    2   14    3
 0.07288081873401582    5    2   14    4
 0.1357739617485409    5    2   14    5
 -0.08178811474645289    5    2   14   12
 -0.1230608624437581    5    2   14   13
 -0.1040098808978313    5    2   14   14
 0.004268042964562798    5    2   15    2
 -0.0226807259881672    5    2   15    3
 -0.01980876098525713    5    2   15    4
 -0.007268790657802038    5    2   15    5
 -0.01857780291839813    5    2   15   12
 0.008195532993313709    5    2   15   13
 -0.09369016158153844    5    2   15   14
 0.08900859094673881    5    2   15   15
 0.05740665152666804    5    2   16    6
 0.06020854019313782    5    2   16    7
 -0.06369721947612179    5    2   16    8
 -0.1484314666566949    5    2   16    9
 -0.07111097648739112    5    2   16   10
 0.05125576827126387    5    2   16   11
 -0.03991261757006645    5    3    2    2
 -0.01232041512118761    5    3    3    2
 0.03146348808497645    5    3    3    3
 0.01013285384275595    5    3    4    2
 -0.09585604619650878    5    3    4    3
 -0.03359252405351797    5    3    4    4
 0.02412661047375747    5    3    5    2
 0.1319219742955377    5    3    5    3
 0.05303471293933857    5    3    5    4
 0.04204165353860801    5    3    5    5
 0.08585773919696436    5    3    6    1