 &FCI NORB=  16,NELEC=10,MS2=0,
  ORBSYM=1,1,1,1,1,1,1,1,1,1,1,1,1,1,1,1
  ISYM=1,
 &END
 0.5000000000000004    1    1    1    1
 0.5000000000000003    1    1    2    2
 0.5000000000000007    1    1    3    3
 0.5000000000000002    1    1    4    4
 0.5    1    1    5    5
 0.5000000000000004    1    1    6    6
 0.5000000000000006    1    1    7    7
 0.5000000000000003    1    1    8    8
 0.5000000000000004    1    1    9    9
 0.5000000000000004    1    1   10   10
 0.4999999999999999    1    1   11   11
 0.5000000000000002    1    1   12   12
 0.5000000000000008    1    1   13   13
 0.5    1    1   14   14
 0.5000000000000007    1    1   15   15
 0.5000000000000004    1    1   16   16
 0.5000000000000004    2    1    2    1
 0.02837689382469422    2    1    6    2
 0.152890268948673    2    1    6    3
 0.2341651231725254    2    1    6    4
 -0.1302807103672229    2    1    6    5
 0.01665149198710269    2    1    7    2
 -0.1154805413777868    2    1    7    3
 -0.08750528453617151    2    1    7    4
 -0.2027356401924988    2    1    7    5
 0.507811466385983    2    1    8    2
 -0.05878163704270131    2    1    8    3
 0.0693078157720384    2    1    8    4
 0.1303848484512027    2    1    8    5
 -0.2318258136359679    2    1    9    2
 -0.1004053825363087    2    1    9    3
 0.03801544632026587    2    1    9    4
 -0.003798942485470234    2    1    9    5
 -0.01627676795451742    2    1   10    2
 0.2358872251037184    2    1   10    3
 -0.135452856798775    2    1   10    4
 0.1477703833078702    2    1   10    5
 -0.2340524032637383    2    1   11    2
 -0.1581943324732234    2    1   11    3
 0.111347857129493    2    1   11    4
 0.2343710849596098    2    1   11    5
 -0.2878998532316401    2    1   12    6
 0.07697656953405538    2    1   12    7
 -0.007106117545997839    2    1   12    8
 -0.03090501652154318    2    1   12    9
 0.0881558022563616    2    1   12   10
 -0.01346172881617143    2    1   12   11
 -0.05082841234773895    2    1   13    6
 0.1749494177311662    2    1   13    7
 -0.371920797460228    2    1   13    8
 0.26893760956436    2    1   13    9
 -0.1531043130842812    2    1   13   10
 0.2070584343942402    2    1   13   11
 0.01433790315522548    2    1   14    6
 0.1495091632795241    2    1   14    7
 0.3604138270916075    2    1   14    8
 -0.02208004470871883    2    1   14    9
 -0.1468301462788203    2    1   14   10
 0.009321424820517628    2    1   14   11
 0.1017760295358577    2    1   15    6
 0.1658939135572944    2    1   15    7
 -0.02136584818925047    2    1   15    8
 -0.06557469009244409    2    1   15    9
 -0.04495891209315044    2    1   15   10
 -0.3504644586361931    2    1   15   11
 -0.0483781260074784    2    1   16   12
 -0.4500258611131231    2    1   16   13
 0.1628939373825693    2    1   16   14
 0.1363885860964942    2    1   16   15
 0.5000000000000004    2    2    1    1
 1.235487348396344    2    2    2    2
 0.05805695977533407    2    2    3    2
 0.2618318825311353    2    2    3    3
 0.01542725647634642    2    2    4    2
 -0.02310090892533332    2    2    4    3
 0.1989700978409191    2    2    4    4
 0.005516922631058012    2    2    5    2
 -0.01201692718022076    2    2    5    3
 0.00441261873275901    2    2    5    4
 0.3037106712316022    2    2    5    5
 0.02837689382469422    2    2    6    1
 0.3840416789881835    2    2    6    6
 0.01665149198710269    2    2    7    1
 -0.04657549677138748    2    2    7    6
 0.2975568274598513    2    2    7    7
 0.507811466385983    2    2    8    1
 0.05721771102490347    2    2    8    6
 -0.06505625597708686    2    2    8    7
 1.10372350199386    2    2    8    8
 -0.2318258136359679    2    2    9    1
 -0.04859063395195132    2    2    9    6
 0.07134031182190631    2    2    9    7
 -0.4320862813674384    2    2    9    8
 0.2867083621452516    2    2    9    9
 -0.01627676795451742    2    2   10    1
 -0.07929191517899463    2    2   10    6
 -0.1900546815820506    2    2   10    7
 -0.01579017240444193    2    2   10    8
 -0.1266628513392144    2    2   10    9
 0.3017681010588272    2    2   10   10
 -0.2340524032637384    2    2   11    1
 -0.1549447082665896    2    2   11    6
 -0.128891239568369    2    2   11    7
 -0.274691987434995    2    2   11    8
 0.3047262872499606    2    2   11    9
 -0.06491223999016177    2    2   11   10
 0.6262015283540261    2    2   11   11
 -0.003232115525948653    2    2   12    2
 -0.05292249182100661    2    2   12    3
 -0.1785184572226401    2    2   12    4
 0.06192911262490369    2    2   12    5
 0.2002208827819676    2    2   12   12
 -0.5914239802687066    2    2   13    2
 -0.2039718314519678    2    2   13    3
 0.002058909395044667    2    2   13    4
 -0.1049136179453691    2    2   13    5
 -1.200428645375951e-15    2    2   13    6
 0.05583779977064816    2    2   13   12
 1.025361490594642    2    2   13   13
 0.3824912649987324    2    2   14    2
 -0.1403039700504682    2    2   14    3
 0.07068238163406607    2    2   14    4
 -0.009229759287187771    2    2   14    5
 -0.03089570369432281    2    2   14   12
 -0.3269037206962879    2    2   14   13
 0.4022492723150615    2    2   14   14
 0.1855227730466874    2    2   15    2
 0.0981585500567958    2    2   15    3
 -0.05518304477054487    2    2   15    4
 -0.2764221233616877    2    2   15    5
 -0.04039340030136837    2    2   15   12
 -0.2258015543717385    2    2   15   13
 0.09112125875442674    2    2   15   14
 0.3721683543083307    2    2   15   15
 0.1060376033573083    2    2   16    6
 -0.07095114390556184    2    2   16    7
 0.4470258546995411    2    2   16    8
 -0.2641481944639478    2    2   16    9
 0.06917292943880231    2    2   16   10
 -0.2776226908509786    2    2   16   11
 0.5000000000000002    2    2   16   16
 0.5000000000000007    3    1    3    1
 0.152890268948673    3    1    6    2
 -0.1297317023883146    3    1    6    3
 0.3586626976830753    3    1    6    4
 0.06383676396914258    3    1    6    5
 -0.1154805413777868    3    1    7    2
 -0.4152540961212139    3    1    7    3
 -0.09561040930833203    3    1    7    4
 0.03807327405888269    3    1    7    5
 -0.05878163704270128    3    1    8    2
 -0.233533031073688    3    1    8    3
 0.04520732616735863    3    1    8    4
 -0.1742555831589299    3    1    8    5
 -0.1004053825363087    3    1    9    2
 -0.057626690798614    3    1    9    3
 0.1296533525775944    3    1    9    4
 -0.1105761120808637    3    1    9    5
 0.2358872251037184    3    1   10    2
 -0.3106448695102947    3    1   10    3
 -0.03149828861741624    3    1   10    4
 -0.1223203568368957    3    1   10    5
 -0.1581943324732234    3    1   11    2
 0.03551757469563652    3    1   11    3
 0.05788715080717816    3    1   11    4
 -0.2239228300225506    3    1   11    5
 -0.3263411986130941    3    1   12    6
 0.110081769440975    3    1   12    7
 -0.08745785574108211    3    1   12    8
 0.04991320236909708    3    1   12    9
 0.07479282579748028    3    1   12   10
 -0.1630700372676676    3    1   12   11
 -0.001697192905533166    3    1   13    6
 -0.2817364567726849    3    1   13    7
 -0.2549264315087406    3    1   13    8
 -0.08910267469774591    3    1   13    9
 -0.01537575795592151    3    1   13   10
 -0.04828651547007007    3    1   13   11
 -0.2076997619265624    3    1   14    6
 -0.1578602712359628    3    1   14    7
 -0.1710193835693166    3    1   14    8
 -0.04347075207104752    3    1   14    9
 -0.4537325801501809    3    1   14   10
 -0.03312574261933897    3    1   14   11
 -0.2072256785807305    3    1   15    6
 -0.03829738616703696    3    1   15    7
 0.1902901186858285    3    1   15    8
 -0.0379672664891692    3    1   15    9
 -0.01412483116027398    3    1   15   10
 0.2139085001005275    3    1   15   11
 0.1338988465579092    3    1   16   12
 0.1310163492014533    3    1   16   13
 0.4585792542961746    3    1   16   14
 -0.06790348048184947    3    1   16   15
 0.05805695977533405    3    2    2    2
 0.2618318825311353    3    2    3    2
 -0.06252659703487917    3    2    3    3
 -0.02310090892533333    3    2    4    2
 0.06722891991918843    3    2    4    3
 0.2222538106508303    3    2    4    4
 -0.01201692718022076    3    2    5    2
 0.06655655211892081    3    2    5    3
 -0.02605765719419628    3    2    5    4
 -0.2177841733912852    3    2    5    5
 0.152890268948673    3    2    6    1
 0.260289389663332    3    2    6    6
 -0.1154805413777868    3    2    7    1
 -0.2352951512323776    3    2    7    6
 -0.04818464284690836    3    2    7    7
 -0.0587816370427013    3    2    8    1
 0.1019333500971313    3    2    8    6
 0.02405845451356587    3    2    8    7
 -0.01195827004949928    3    2    8    8
 -0.1004053825363087    3    2    9    1
 0.03755596271736684    3    2    9    6
 -0.01697780153050707    3    2    9    7
 -0.07020576155967849    3    2    9    8
 0.02471078197827434    3    2    9    9
 0.2358872251037184    3    2   10    1
 -0.1218702195771499    3    2   10    6
 0.0004863756587700382    3    2   10    7
 -0.0762559525278691    3    2   10    8
 -0.03945798090995148    3    2   10    9
 -0.02944251229601742    3    2   10   10
 -0.1581943324732234    3    2   11    1
 0.2287343515651495    3    2   11    6
 0.08625838523302458    3    2   11    7
 -0.2099930948481702    3    2   11    8
 0.02983341283547011    3    2   11    9
 -0.08342607957693521    3    2   11   10
 -0.1954147464491813    3    2   11   11
 -0.05292249182100663    3    2   12    2
 -0.03807581274731418    3    2   12    3
 -0.2370058098979421    3    2   12    4
 -0.03712213699504625    3    2   12    5
 0.2076341370664244    3    2   12   12
 -0.2039718314519678    3    2   13    2
 0.1204373671718293    3    2   13    3
 -0.0001871527086534646    3    2   13    4
 0.02170007911662002    3    2   13    5
 -0.04735399059395483    3    2   13   12
 -0.08991752577728933    3    2   13   13
 -0.1403039700504682    3    2   14    2
 -0.201794801167024    3    2   14    3
 0.01888584278565771    3    2   14    4
 -0.07576394274190749    3    2   14    5
 -0.0230689956301537    3    2   14   12
 -0.2178176824437703    3    2   14   13
 0.1075103436009707    3    2   14   14
 0.09815855005679582    3    2   15    2
 -0.1436092264565249    3    2   15    3
 -0.01539410225484204    3    2   15    4
 0.2155273459967356    3    2   15    5
 0.1113873503589248    3    2   15   12
 -0.0002767555384984854    3    2   15   13
 0.1074626694646919    3    2   15   14
 -0.2252269548901063    3    2   15   15
 -0.09108938598285783    3    2   16    6
 0.1810506687290517    3    2   16    7
 0.2340998270059011    3    2   16    8
 0.05084875390889126    3    2   16    9
 -0.1450712005734442    3    2   16   10
 0.1067957975085936    3    2   16   11
 0.5000000000000007    3    3    1    1
 0.2618318825311353    3    3    2    2
 -0.06252659703487914    3    3    3    2
 1.189773048220415    3    3    3    3
 0.06722891991918842    3    3    4    2
 -0.02603082572605279    3    3    4    3
 0.3219540793312375    3    3    4    4
 0.06655655211892081    3    3    5    2
 0.1060396606270122    3    3    5    3
 -0.02413580139565625    3    3    5    4
 0.2264409899172137    3    3    5    5
 -0.1297317023883147    3    3    6    1
 0.7310058868614098    3    3    6    6
 -0.4152540961212139    3    3    7    1
 -1.197386103029413e-15    3    3    7    3
 0.01926408837001764    3    3    7    6
 0.6284852528160477    3    3    7    7
 -0.2335330310736881    3    3    8    1
 0.1029224269923075    3    3    8    6
 0.3494220352529608    3    3    8    7
 0.456991977791297    3    3    8    8
 -0.05762669079861398    3    3    9    1
 0.06465430069930517    3    3    9    6
 0.1156654797551742    3    3    9    7
 0.126096771282775    3    3    9    8
 0.1124019575030082    3    3    9    9
 -0.3106448695102947    3    3   10    1
 -1.469324336679512e-15    3    3   10    3
 0.2600896878758849    3    3   10    6
 0.3696862565981257    3    3   10    7
 0.3017175394476556    3    3   10    8
 0.0580449757506944    3    3   10    9
 0.7600011513425388    3    3   10   10
 0.03551757469563652    3    3   11    1
 -0.01295075785251569    3    3   11    6
 -0.03570080972475843    3    3   11    7
 0.2311644088462182    3    3   11    8
 0.07116834224440099    3    3   11    9
 -0.04445524015464185    3    3   11   10
 0.3111137736856995    3    3   11   11
 -0.03807581274731418    3    3   12    2
 -0.02970600157965531    3    3   12    3
 -0.2736984106632238    3    3   12    4
 0.04089167639704986    3    3   12    5
 0.3577429662636847    3    3   12   12
 0.1204373671718293    3    3   13    2
 0.3698844247309223    3    3   13    3
 0.001880713171753212    3    3   13    4
 0.1122664601820988    3    3   13    5
 0.02330952211279357    3    3   13   12
 0.3440767378513916    3    3   13   13
 -0.201794801167024    3    3   14    2
 0.5494285413341768    3    3   14    3
 -0.120788569334536    3    3   14    4
 0.156514224533373    3    3   14    5
 -1.51438648947344e-15    3    3   14    7
 -1.44019995582112e-15    3    3   14   10
 0.1921195657436828    3    3   14   12
 0.3219112204567633    3    3   14   13
 1.032923787531503    3    3   14   14
 -0.1436092264565249    3    3   15    2
 0.02504220745361332    3    3   15    3
 -0.1083102129119159    3    3   15    4
 -0.1796376176361083    3    3   15    5
 -0.0003154042817572189    3    3   15   12
 -0.1059874126078344    3    3   15   13
 -0.02724516513947    3    3   15   14
 0.2652565083534204    3    3   15   15
 1.282231699289982e-15    3    3   16    3
 -0.2501890544358473    3    3   16    6
 -0.1839263594007805    3    3   16    7
 -0.2729146782497379    3    3   16    8
 -0.04469452489437622    3    3   16    9
 -0.3982260512532979    3    3   16   10
 -0.1157542457614107    3    3   16   11
 0.5000000000000002    3    3   16   16
 0.5000000000000002    4    1    4    1
 0.2341651231725254    4    1    6    2
 0.3586626976830753    4    1    6    3
 0.09323115436085287    4    1    6    4
 0.09437866183026701    4    1    6    5
 -0.08750528453617151    4    1    7    2
 -0.09561040930833203    4    1    7    3
 0.02571006977677538    4    1    7    4
 0.1452682421326228    4    1    7    5
 0.0693078157720384    4    1    8    2
 0.04520732616735863    4    1    8    3
 -0.253535071504847    4    1    8    4
 -0.06141649373176941    4    1    8    5
 0.03801544632026587    4    1    9    2
 0.1296533525775944    4    1    9    3
 0.009986968022462584    4    1    9    4
 -0.3765497313382185    4    1    9    5
 -0.135452856798775    4    1   10    2
 -0.03149828861741624    4    1   10    3
 0.40976415795804    4    1   10    4
 -0.049516505470492    4    1   10    5
 0.111347857129493    4    1   11    2
 0.05788715080717818    4    1   11    3
 0.06774458584441329    4    1   11    4
 0.2555099319843036    4    1   11    5
 -0.02204700847565244    4    1   12    6
 0.32376797664907    4    1   12    7
 0.04716371855158476    4    1   12    8
 0.2849713442004513    4    1   12    9
 -0.04565493340901004    4    1   12   10
 0.2249688541114538    4    1   12   11
 0.1379759562023601    4    1   13    6
 0.004402222569389643    4    1   13    7
 0.007850809866883491    4    1   13    8
 -0.08210896118320565    4    1   13    9
 -0.04416077575535966    4    1   13   10
 0.1140756525765215    4    1   13   11
 -0.3774517851401982    4    1   14    6
 0.107387730414746    4    1   14    7
 -0.005634003995958987    4    1   14    8
 -0.05339462540063647    4    1   14    9
 0.2040414226569789    4    1   14   10
 -0.1626466031870082    4    1   14   11
 0.01845548175771455    4    1   15    6
 0.2570589004195187    4    1   15    7
 -0.1419689057092509    4    1   15    8
 -0.3523543747242842    4    1   15    9
 0.01548021593361566    4    1   15   10
 0.1783151072441651    4    1   15   11
 0.4677767248190882    4    1   16   12
 -0.04657691582735614    4    1   16   13
 -0.1032119544873752    4    1   16   14
 0.1355094796700022    4    1   16   15
 0.01542725647634641    4    2    2    2
 -0.02310090892533332    4    2    3    2
 0.06722891991918845    4    2    3    3
 0.1989700978409191    4    2    4    2
 0.2222538106508303    4    2    4    3
 -0.09114219310188933    4    2    4    4
 0.004412618732759009    4    2    5    2
 -0.02605765719419628    4    2    5    3
 0.05194947701071682    4    2    5    4
 0.008486016706354838    4    2    5    5
 0.2341651231725254    4    2    6    1
 0.1336347420195605    4    2    6    6
 -0.08750528453617151    4    2    7    1
 -0.1914812786133736    4    2    7    6
 0.1245518048262534    4    2    7    7
 0.0693078157720384    4    2    8    1
 -0.1419929384492634    4    2    8    6
 0.02236073213307707    4    2    8    7
 0.009411766832298493    4    2    8    8
 0.03801544632026588    4    2    9    1
 -0.08439854787411148    4    2    9    6
 0.004522965029238215    4    2    9    7
 -0.03984716448251155    4    2    9    8
 -0.05325090724271486    4    2    9    9
 -0.135452856798775    4    2   10    1
 0.2272674373859876    4    2   10    6
 -0.005203895434258611    4    2   10    7
 0.08993601236030824    4    2   10    8
 0.06868732613556661    4    2   10    9
 -0.1919301112570682    4    2   10   10
 0.111347857129493    4    2   11    1
 -0.120330199586278    4    2   11    6
 -0.04004135477657735    4    2   11    7
 -0.03060966174675883    4    2   11    8
 -0.02879192486357088    4    2   11    9
 0.1173089314781993    4    2   11   10
 -0.02241729517832906    4    2   11   11
 -0.1785184572226401    4    2   12    2
 -0.2370058098979421    4    2   12    3
 0.02368393752499146    4    2   12    4
 -0.02344083226900636    4    2   12    5
 -0.01511138936255867    4    2   12   12
 0.002058909395044668    4    2   13    2
 -0.0001871527086534715    4    2   13    3
 0.09606087083529334    4    2   13    4
 0.005355681157133233    4    2   13    5
 -0.08015595947160731    4    2   13   12
 0.04019469636795003    4    2   13   13
 0.07068238163406607    4    2   14    2
 0.01888584278565772    4    2   14    3
 -0.2919033660596759    4    2   14    4
 0.03780647831900533    4    2   14    5
 0.2875899820571509    4    2   14   12
 0.01447870409507413    4    2   14   13
 -0.07699233263455035    4    2   14   14
 -0.05518304477054487    4    2   15    2
 -0.01539410225484204    4    2   15    3
 -0.04729736006334991    4    2   15    4
 -0.05522398335438897    4    2   15    5
 0.03756218778352643    4    2   15   12
 -0.04871424737476082    4    2   15   13
 0.03354515786127273    4    2   15   14
 0.0519090256291596    4    2   15   15
 -0.2399872918793054    4    2   16    6
 0.06981661646291427    4    2   16    7
 -0.052190886406663    4    2   16    8
 -0.06717999875362012    4    2   16    9
 0.1148612534948878    4    2   16   10
 -0.1287891311862165    4    2   16   11
 -0.02310090892533332    4    3    2    2
 0.06722891991918845    4    3    3    2
 -0.02603082572605276    4    3    3    3
 0.2222538106508304    4    3    4    2
 0.3219540793312375    4    3    4    3
 0.0236565191899824    4    3    4    4
 -0.02605765719419627    4    3    5    2
 -0.02413580139565626    4    3    5    3
 -0.03057206806455433    4    3    5    4
 0.02547521546140388    4    3    5    5
 0.3586626976830754    4    3    6    1
 0.2205357670723274    4    3    6    6
 -0.09561040930833203    4    3    7    1
 -0.3274404399225915    4    3    7    6
 0.120968407940664    4    3    7    7
 0.04520732616735863    4    3    8    1
 -0.1498750807564332    4    3    8    6
 0.008864926303496685    4    3    8    7
 -0.09513775836584532    4    3    8    8
 0.1296533525775944    4    3    9    1
 -0.08043066334193079    4    3    9    6
 0.005811819866913993    4    3    9    7
 -0.05670970309271121    4    3    9    8
 0.1377655949793016    4    3    9    9
 -0.03149828861741624    4    3   10    1
 0.1931396592395475    4    3   10    6
 -0.07545594647454915    4    3   10    7
 0.05154445262853852    4    3   10    8
 0.1324329225428848    4    3   10    9
 -0.2491027250747896    4    3   10   10
 0.05788715080717818    4    3   11    1
 -0.05331486778871873    4    3   11    6
 -0.04434648296384245    4    3   11    7
 -0.09706823921759297    4    3   11    8
 -0.06524209637503584    4    3   11    9
 0.1224934697682149    4    3   11   10
 -0.1350292865516578    4    3   11   11
 -0.2370058098979421    4    3   12    2
 -0.2736984106632238    4    3   12    3
 0.02935493144417134    4    3   12    4
 -0.1472024041594834    4    3   12    5
 0.1509384332068839    4    3   12   12
 -0.0001871527086534646    4    3   13    2
 0.001880713171753219    4    3   13    3
 0.0935392915158284    4    3   13    4
 -0.006911186588282174    4    3   13    5
 -0.1549387922004873    4    3   13   12
 -0.01418267424172911    4    3   13   13
 0.01888584278565773    4    3   14    2
 -0.120788569334536    4    3   14    3
 -0.3373297097602656    4    3   14    4
 -0.003317806484304025    4    3   14    5
 0.3215816021877211    4    3   14   12
 -0.06445335396441501    4    3   14   13
 -0.1395885893860617    4    3   14   14
 -0.01539410225484205    4    3   15    2
 -0.1083102129119159    4    3   15    3
 -0.1204512424413991    4    3   15    4
 0.06568738899509405    4    3   15    5
 0.01465679274067651    4    3   15   12
 0.00807775903803956    4    3   15   13
 0.08879018993322949    4    3   15   14
 0.002832830420907299    4    3   15   15
 -0.3184394251067995    4    3   16    6
 0.1514390261238853    4    3   16    7
 0.0288005948543238    4    3   16    8
 0.05368027773337408    4    3   16    9
 0.1612381527330982    4    3   16   10
 -0.0832514575946994    4    3   16   11
 0.5000000000000002    4    4    1    1
 0.1989700978409191    4    4    2    2
 0.2222538106508303    4    4    3    2
 0.3219540793312375    4    4    3    3
 -0.09114219310188933    4    4    4    2
 0.02365651918998241    4    4    4    3
 0.9924576438058518    4    4    4    4
 0.05194947701071682    4    4    5    2
 -0.03057206806455436    4    4    5    3
 0.04272771717487396    4    4    5    4
 0.4866181790219915    4    4    5    5
 0.09323115436085289    4    4    6    1
 0.7268110111142937    4    4    6    6
 0.02571006977677533    4    4    7    1
 -0.1619912608692383    4    4    7    6
 0.4420377604911944    4    4    7    7
 -0.253535071504847    4    4    8    1
 0.005119490614420109    4    4    8    6
 -0.09524418503700216    4    4    8    7
 0.1947445152081055    4    4    8    8
 0.009986968022462612    4    4    9    1
 0.03367149707335353    4    4    9    6
 -0.149146673255079    4    4    9    7
 0.1844204869526583    4    4    9    8
 0.7501994912514363    4    4    9    9
 0.4097641579580399    4    4   10    1
 -0.1826055741325551    4    4   10    6
 0.05824231205559377    4    4   10    7
 -0.2350151675657332    4    4   10    8
 -0.02445804121552933    4    4   10    9
 0.4712105087339559    4    4   10   10
 0.06774458584441331    4    4   11    1
 0.3054565733870075    4    4   11    6
 0.2505843790608721    4    4   11    7
 -0.07085369506771994    4    4   11    8
 -0.1664000836170959    4    4   11    9
 -0.09506656521292876    4    4   11   10
 0.4149967132010149    4    4   11   11
 0.02368393752499141    4    4   12    2
 0.02935493144417133    4    4   12    3
 -0.01262072265623787    4    4   12    4
 -0.01101525256140206    4    4   12    5
 0.9205105583929154    4    4   12   12
 0.09606087083529333    4    4   13    2
 0.0935392915158284    4    4   13    3
 -0.0004022626877728463    4    4   13    4
 0.1508631536588861    4    4   13    5
 -0.03750611410686815    4    4   13   12
 0.08598619697944032    4    4   13   13
 -0.2919033660596759    4    4   14    2
 -0.3373297097602655    4    4   14    3
 0.08211256511833394    4    4   14    4
 -0.1024657113627798    4    4   14    5
 -0.133154670786591    4    4   14   12
 -0.1400478618927694    4    4   14   13
 0.4712484600182265    4    4   14   14
 -0.04729736006334991    4    4   15    2
 -0.1204512424413991    4    4   15    3
 0.1184557873194048    4    4   15    4
 0.4505544610657138    4    4   15    5
 0.1570212965910762    4    4   15   12
 0.08968220855452863    4    4   15   13
 0.0008453222725411135    4    4   15   14
 0.5222547846094174    4    4   15   15
 0.04943771456816045    4    4   16    6
 0.3499926041289191    4    4   16    7
 0.006079574612071522    4    4   16    8
 0.1897818997989327    4    4   16    9
 -0.07652248101828037    4    4   16   10
 0.2817447258003455    4    4   16   11
 0.5000000000000001    4    4   16   16
 0.4999999999999999    5    1    5    1
 -0.1302807103672229    5    1    6    2
 0.06383676396914258    5    1    6    3
 0.09437866183026701    5    1    6    4
 0.008123654202767538    5    1    6    5
 -0.2027356401924988    5    1    7    2
 0.03807327405888269    5    1    7    3
 0.1452682421326228    5    1    7    4
 0.3728925343573353    5    1    7    5
 0.1303848484512027    5    1    8    2
 -0.1742555831589299    5    1    8    3
 -0.06141649373176941    5    1    8    4
 -0.02074336380744814    5    1    8    5
 -0.003798942485470237    5    1    9    2
 -0.1105761120808637    5    1    9    3
 -0.3765497313382185    5    1    9    4
 0.2794655364121185    5    1    9    5
 0.1477703833078702    5    1   10    2
 -0.1223203568368957    5    1   10    3
 -0.049516505470492    5    1   10    4
 -0.08284252049322843    5    1   10    5
 0.2343710849596098    5    1   11    2
 -0.2239228300225506    5    1   11    3
 0.2555099319843036    5    1   11    4
 0.1307902427236886    5    1   11    5
 -0.0432906615547563    5    1   12    6
 0.1223211555711133    5    1   12    7
 -0.05666647356749625    5    1   12    8
 -0.4369623959048899    5    1   12    9
 -0.06636736235490236    5    1   12   10
 0.1856308347854894    5    1   12   11
 -0.1320596921022992    5    1   13    6
 -0.280918267309689    5    1   13    7
 0.07173059847554866    5    1   13    8
 0.02659406083689034    5    1   13    9
 0.2256086700696737    5    1   13   10
 0.3017269059554382    5    1   13   11
 -0.0825089958554938    5    1   14    6
 -0.1328345750571837    5    1   14    7
 0.05746991209885489    5    1   14    8
 0.03593666858264392    5    1   14    9
 -0.07892065334972206    5    1   14   10
 0.09484646395738419    5    1   14   11
 0.1514186645386054    5    1   15    6
 0.04164731592476397    5    1   15    7
 -0.2429883822540239    5    1   15    8
 0.01667561557095041    5    1   15    9
 0.3547740516375152    5    1   15   10
 0.04344601073761346    5    1   15   11
 -0.1044777083017869    5    1   16   12
 0.1677558687001048    5    1   16   13
 0.05017893127662353    5    1   16   14
 0.4565352689996865    5    1   16   15
 0.005516922631058005    5    2    2    2
 -0.01201692718022076    5    2    3    2
 0.06655655211892081    5    2    3    3
 0.004412618732759011    5    2    4    2
 -0.02605765719419627    5    2    4    3
 0.05194947701071682    5    2    4    4
 0.3037106712316022    5    2    5    2
 -0.2177841733912852    5    2    5    3
 0.008486016706354835    5    2    5    4
 -0.1240229517606956    5    2    5    5
 -0.1302807103672229    5    2    6    1
 0.1210168754670868    5    2    6    6
 -0.2027356401924988    5    2    7    1
 -0.06619881421335427    5    2    7    6
 -0.2975289860567588    5    2    7    7
 0.1303848484512027    5    2    8    1
 -0.09171856874116789    5    2    8    6
 0.01668627745108077    5    2    8    7
 0.1382437344660471    5    2    8    8
 -0.00379894248547023    5    2    9    1
 -0.02987097270787799    5    2    9    6
 -0.06369081648404182    5    2    9    7
 0.04144187191171447    5    2    9    8
 0.03075248362014223    5    2    9    9
 0.1477703833078702    5    2   10    1
 0.05461035416386157    5    2   10    6
 0.2382623485960819    5    2   10    7
 -0.1029293798227989    5    2   10    8
 0.0353221374291986    5    2   10    9
 -0.1630964110481224    5    2   10   10
 0.2343710849596098    5    2   11    1
 -0.09558111428818131    5    2   11    6
 0.1387021211594108    5    2   11    7
 0.1733177326058584    5    2   11    8
 0.09566373079166933    5    2   11    9
 -0.2352576515396297    5    2   11   10
 0.1706123035516047    5    2   11   11
 0.06192911262490369    5    2   12    2
 -0.03712213699504625    5    2   12    3
 -0.02344083226900636    5    2   12    4
 0.0176239907482714    5    2   12    5
 0.06498220487880367    5    2   12   12
 -0.1049136179453691    5    2   13    2
 0.02170007911662001    5    2   13    3
 0.005355681157133233    5    2   13    4
 0.3749257422615847    5    2   13    5
 0.04555091690033287    5    2   13   12
 -0.2190422000241986    5    2   13   13
 -0.009229759287187774    5    2   14    2
 -0.07576394274190749    5    2   14    3
 0.03780647831900533    5    2   14    4
 0.1112069022279672    5    2   14    5
 0.002696986117666104    5    2   14   12
 -0.04323005618782765    5    2   14   13
 0.03904470899621352    5    2   14   14
 -0.2764221233616877    5    2   15    2
 0.2155273459967356    5    2   15    3
 -0.05522398335438897    5    2   15    4
 0.005383813473186823    5    2   15    5
 -0.06114397599699665    5    2   15   12
 -0.312654631256469    5    2   15   13
 -0.1137332185463608    5    2   15   14
 0.1150152861491812    5    2   15   15
 0.1374723201939406    5    2   16    6
 0.2090901769058736    5    2   16    7
 -0.1066370963583174    5    2   16    8
 0.0345992715857    5    2   16    9
 -0.1255751441645556    5    2   16   10
 -0.2467798573057032    5    2   16   11
 -0.01201692718022076    5    3    2    2
 0.06655655211892081    5    3    3    2
 0.1060396606270122    5    3    3    3
 -0.02605765719419627    5    3    4    2
 -0.02413580139565626    5    3    4    3
 -0.03057206806455435    5    3    4    4
 -0.2177841733912852    5    3    5    2
 0.2264409899172137    5    3    5    3