 &FCI NORB=  16,NELEC= 8,MS2=0,
  ORBSYM=1,1,1,1,1,1,1,1,1,1,1,1,1,1,1,1
  ISYM=1,
 &END
 0.3755468489832623    1    1    1    1
 0.3828739745855775    1    1    2    2
 -1.856796756928569e-05    1    1    3    2
 0.3804460166547643    1    1    3    3
 1.72829745248371e-05    1    1    4    2
 5.905343528433624e-06    1    1    4    3
 0.3794224234459828    1    1    4    4
 3.083484654634039e-05    1    1    5    2
 1.51821452673423e-05    1    1    5    3
 1.373408900492978e-05    1    1    5    4
 0.3584018595557524    1    1    5    5
 0.002112901232030219    1    1    6    1
 0.3889836822519854    1    1    6    6
 -0.0002050477275039371    1    1    7    1
 -1.626625820742531e-06    1    1    7    6
 0.3852044502683762    1    1    7    7
 0.0004904512091424146    1    1    8    1
 -2.918649874403099e-06    1    1    8    6
 2.914251938205459e-07    1    1    8    7
 0.3757002185977608    1    1    8    8
 0.0004488055253283815    1    1    9    1
 -2.679334611736166e-06    1    1    9    6
 2.667368587107674e-07    1    1    9    7
 9.532009563884003e-07    1    1    9    8
 0.3745030077448362    1    1    9    9
 -0.0004581893103512737    1    1   10    1
 2.74597860703303e-06    1    1   10    6
 -2.727788605117707e-07    1    1   10    7
 -9.780945806059371e-07    1    1   10    8
 -8.996192880257603e-07    1    1   10    9
 0.373358531152214    1    1   10   10
 -0.01371007479890955    1    1   11    1
 -0.0001182982353586167    1    1   11    6
 1.158222642148511e-05    1    1   11    7
 1.993282703885305e-05    1    1   11    8
 1.834579166438825e-05    1    1   11    9
 -1.883614944217049e-05    1    1   11   10
 0.3523019248516424    1    1   11   11
 0.00801217024239325    1    1   12    2
 -0.0004338408211311887    1    1   12    3
 0.0003298233265453636    1    1   12    4
 -0.001051687325802089    1    1   12    5
 0.3825195524655595    1    1   12   12
 0.000522984852661737    1    1   13    2
 -0.004913465100060681    1    1   13    3
 -0.0001389072000222589    1    1   13    4
 0.0003333414401101506    1    1   13    5
 4.182573094712455e-06    1    1   13   12
 0.3803093222823556    1    1   13   13
 -0.0003843473187676322    1    1   14    2
 -0.0001873568771207654    1    1   14    3
 -0.005856208410612677    1    1   14    4
 0.0004164974662849074    1    1   14    5
 -3.733653752598619e-06    1    1   14   12
 1.183185039572293e-06    1    1   14   13
 0.3792304789501648    1    1   14   14
 -0.0009892841853869662    1    1   15    2
 -0.0003279330931870925    1    1   15    3
 -0.0003911416886709356    1    1   15    4
 -0.0168486956009983    1    1   15    5
 5.761647944829695e-06    1    1   15   12
 -2.754896843461252e-06    1    1   15   13
 -2.566061696523611e-06    1    1   15   14
 0.3567963720598431    1    1   15   15
 0.0004704228835824519    1    1   16    1
 0.002030066283686107    1    1   16    6
 -0.0001989143672605585    1    1   16    7
 -0.0005122140273823919    1    1   16    8
 -0.0004714210669432284    1    1   16    9
 0.0004840501572664167    1    1   16   10
 -0.01457908969231897    1    1   16   11
 0.3744013361499224    1    1   16   16
 0.3828739745855775    2    1    2    1
 -1.856796756928222e-05    2    1    3    1
 1.728297452484144e-05    2    1    4    1
 3.08348465463508e-05    2    1    5    1
 0.4482517721374462    2    1    6    2
 -0.0543421585197244    2    1    6    3
 0.04059057860493714    2    1    6    4
 -0.009836148320764074    2    1    6    5
 -0.01068743986496518    2    1    7    2
 0.01784604054979809    2    1    7    3
 -0.03708067871709987    2    1    7    4
 0.0004646844734983719    2    1    7    5
 0.04665823003683849    2    1    8    2
 0.2553064976379247    2    1    8    3
 -0.006432510430734032    2    1    8    4
 0.1112323271519026    2    1    8    5
 -0.01355124709560061    2    1    9    2
 -0.0554807346008637    2    1    9    3
 0.1032767731727502    2    1    9    4
 0.2317443090251174    2    1    9    5
 -0.02646017152675822    2    1   10    2
 0.03540044551892238    2    1   10    3
 0.2293776965045245    2    1   10    4
 -0.0738128862319548    2    1   10    5
 -0.1377782848073202    2    1   11    2
 -0.0015864628380028    2    1   11    3
 0.001439527892763068    2    1   11    4
 0.01104870138846428    2    1   11    5
 0.008012170242393261    2    1   12    1
 0.439967702206241    2    1   12    6
 -0.01031466947856866    2    1   12    7
 -0.04936624372360431    2    1   12    8
 0.01485749197489118    2    1   12    9
 0.02795278229954208    2    1   12   10
 -0.1492286249369233    2    1   12   11
 0.0005229848526617474    2    1   13    1
 0.05630288866470468    2    1   13    6
 -0.01783440213682832    2    1   13    7
 0.2583235859677188    2    1   13    8
 -0.05686193877279748    2    1   13    9
 0.03525281752845972    2    1   13   10
 0.0004392837669047929    2    1   13   11
 -0.0003843473187676288    2    1   14    1
 -0.04118978590560345    2    1   14    6
 0.03644157253544084    2    1   14    7
 -0.005199974273997904    2    1   14    8
 0.1042273662743759    2    1   14    9
 0.2332990044112981    2    1   14   10
 -0.0006749550916745642    2    1   14   11
 -0.0009892841853869697    2    1   15    1
 -0.008440875696555548    2    1   15    6
 0.0003915897775338183    2    1   15    7
 -0.1058919870311538    2    1   15    8
 -0.2209826681839338    2    1   15    9
 0.07047800903112479    2    1   15   10
 0.01163771845093701    2    1   15   11
 0.008041405928205004    2    1   16    2
 -0.0004584578634593932    2    1   16    3
 0.0003467439709120279    2    1   16    4
 -0.001047059238911519    2    1   16    5
 0.3745344347005066    2    1   16   12
 0.002643263776492932    2    1   16   13
 -0.0016323088652027    2    1   16   14
 0.0003789795695003442    2    1   16   15
 0.3828739745855775    2    2    1    1
 0.9537859045315914    2    2    2    2
 -0.03128039463919841    2    2    3    2
 0.1934946734793066    2    2    3    3
 0.02644034277540239    2    2    4    2
 -0.005317123439893955    2    2    4    3
 0.1773231742756941    2    2    4    4
 -0.004992181544775067    2    2    5    2
 0.03560168533880727    2    2    5    3
 0.01563114416815065    2    2    5    4
 0.1915229459023026    2    2    5    5
 0.4482517721374462    2    2    6    1
 1.034168467421515    2    2    6    6
 -0.01068743986496518    2    2    7    1
 -0.0366909382239264    2    2    7    6
 0.009231701908967738    2    2    7    7
 0.04665823003683847    2    2    8    1
 -0.0009872618170996216    2    2    8    6
 4.955171084120164e-05    2    2    8    7
 0.4262276313924041    2    2    8    8
 -0.0135512470956006    2    2    9    1
 -0.0006095862395046632    2    2    9    6
 1.340340646410642e-05    2    2    9    7
 0.04728660979509862    2    2    9    8
 0.3492532633164875    2    2    9    9
 -0.02646017152675821    2    2   10    1
 0.0008524535082891324    2    2   10    6
 -3.35182987102624e-05    2    2   10    7
 -0.007466112751639444    2    2   10    8
 0.03245756186797223    2    2   10    9
 0.3251846475505469    2    2   10   10
 -0.1377782848073202    2    2   11    1
 -0.3260405140760335    2    2   11    6
 0.007394056636161756    2    2   11    7
 0.001669745844256929    2    2   11    8
 -0.0006138602411182919    2    2   11    9
 -0.001013704156262092    2    2   11   10
 0.1063185107371088    2    2   11   11
 0.5569706529678102    2    2   12    2
 -0.09435603884871527    2    2   12    3
 0.06840018293323807    2    2   12    4
 -0.02674804247021965    2    2   12    5
 0.9285071387043653    2    2   12   12
 0.09684387837856309    2    2   13    2
 0.1786160875067859    2    2   13    3
 0.009148344954637211    2    2   13    4
 0.03289390784169044    2    2   13    5
 0.03295163689981376    2    2   13   12
 0.1985744319550026    2    2   13   13
 -0.06916313317889308    2    2   14    2
 0.01059201836460232    2    2   14    3
 0.1643535153920749    2    2   14    4
 0.01789798373784591    2    2   14    5
 -0.02656336542691875    2    2   14   12
 -0.005033525533153895    2    2   14   13
 0.1826777412722562    2    2   14   14
 -0.02444406975892468    2    2   15    2
 -0.03139404088830086    2    2   15    3
 -0.01669923498195067    2    2   15    4
 -0.1814504390753086    2    2   15    5
 -0.003686424432632937    2    2   15   12
 -0.03382449483260513    2    2   15   13
 -0.01508983741296951    2    2   15   14
 0.1741139898794792    2    2   15   15
 0.008041405928204987    2    2   16    1
 0.4315625591951466    2    2   16    6
 -0.01038443856121697    2    2   16    7
 -0.04660799747725954    2    2   16    8
 0.01346658587808029    2    2   16    9
 0.02667237688169355    2    2   16   10
 -0.1461629566578119    2    2   16   11
 0.3667418030873918    2    2   16   16
 -1.856796756928916e-05    3    1    2    1
 0.3804460166547643    3    1    3    1
 5.905343528404133e-06    3    1    4    1
 1.518214526733536e-05    3    1    5    1
 -0.0543421585197244    3    1    6    2
 -0.2163466993117704    3    1    6    3
 -0.01521843715364185    3    1    6    4
 0.002887332341981851    3    1    6    5
 0.0178460405497981    3    1    7    2
 -0.08100002845938084    3    1    7    3
 -0.3737544415801098    3    1    7    4
 0.003710326292389263    3    1    7    5
 0.2553064976379247    3    1    8    2
 0.04990958724404553    3    1    8    3
 -0.001723008868829199    3    1    8    4
 0.2361850425167573    3    1    8    5
 -0.05548073460086371    3    1    9    2
 0.2336342453958781    3    1    9    3
 -0.0650418495120355    3    1    9    4
 -0.1199450123391575    3    1    9    5
 0.03540044551892238    3    1   10    2
 -0.0893598711215705    3    1   10    3
 -0.0002748595532616168    3    1   10    4
 -0.005837785938965709    3    1   10    5
 -0.001586462838002799    3    1   11    2
 -0.15727184378025    3    1   11    3
 0.0007742835818586335    3    1   11    4
 0.004381893605735262    3    1   11    5
 -0.0004338408211311713    3    1   12    1
 -0.05476540980688985    3    1   12    6
 0.01875476306470535    3    1   12    7
 -0.2603223497596556    3    1   12    8
 0.05460392179003896    3    1   12    9
 -0.03564262020183184    3    1   12   10
 -0.002690813144607165    3    1   12   11
 -0.004913465100060695    3    1   13    1
 0.2108915632773408    3    1   13    6
 0.07839523394170832    3    1   13    7
 0.04897697353296024    3    1   13    8
 0.2385559187958697    3    1   13    9
 -0.09170815937615213    3    1   13   10
 0.1691563477053203    3    1   13   11
 -0.0001873568771207723    3    1   14    1
 0.01604103640189816    3    1   14    6
 0.3679844658971939    3    1   14    7
 -0.0005143657558114214    3    1   14    8
 -0.06504711241361456    3    1   14    9
 -0.000520383206987626    3    1   14   10
 3.130757723174217e-05    3    1   14   11
 -0.0003279330931870855    3    1   15    1
 0.002533532685461734    3    1   15    6
 0.003220636286442666    3    1   15    7
 -0.2247814390560121    3    1   15    8
 0.1143544675694123    3    1   15    9
 0.005585976327328102    3    1   15   10
 0.004532708856195269    3    1   15   11
 -0.0004584578634593897    3    1   16    2
 0.005028951662465038    3    1   16    3
 0.0001650212250110823    3    1   16    4
 -0.000346538032206585    3    1   16    5
 0.002643345859288708    3    1   16   12
 -0.3745415221772148    3    1   16   13
 -0.001692059267536063    3    1   16   14
 0.0001950235017199875    3    1   16   15
 -1.856796756928222e-05    3    2    1    1
 -0.03128039463919841    3    2    2    2
 0.1934946734793066    3    2    3    2
 0.01802181863206101    3    2    3    3
 -0.005317123439893957    3    2    4    2
 -0.006753952329988669    3    2    4    3
 0.0163173362426965    3    2    4    4
 0.03560168533880727    3    2    5    2
 0.1774635860722121    3    2    5    3
 -0.0407451998661762    3    2    5    4
 -0.00307387788623182    3    2    5    5
 -0.0543421585197244    3    2    6    1
 -0.06665033317594155    3    2    6    6
 0.0178460405497981    3    2    7    1
 -0.01388174964577518    3    2    7    6
 0.06243802966430683    3    2    7    7
 0.2553064976379246    3    2    8    1
 -0.001389846175791532    3    2    8    6
 0.0001091975139868173    3    2    8    7
 0.266140288646747    3    2    8    8
 -0.05548073460086373    3    2    9    1
 0.0003801834732771239    3    2    9    6
 -6.548123401454066e-05    3    2    9    7
 0.2431468016804439    3    2    9    8
 -0.2442620919467748    3    2    9    9
 0.03540044551892239    3    2   10    1
 -0.0002646622336482109    3    2   10    6
 5.46401589997669e-05    3    2   10    7
 -0.118086902463773    3    2   10    8
 0.01725142820380193    3    2   10    9
 -0.02050545211481629    3    2   10   10
 -0.0015864628380028    3    2   11    1
 0.04146934115109274    3    2   11    6
 -0.01506502193592786    3    2   11    7
 0.009597427064982384    3    2   11    8
 -0.002174463958236688    3    2   11    9
 0.001455309199833243    3    2   11   10
 0.002861641094491944    3    2   11   11
 -0.09435603884871524    3    2   12    2
 -0.1798386284253441    3    2   12    3
 -0.009913796558857697    3    2   12    4
 -0.03491407426678225    3    2   12    5
 -0.02506823955392522    3    2   12   12
 0.1786160875067859    3    2   13    2
 -0.03735886794577763    3    2   13    3
 0.02376723408236807    3    2   13    4
 0.1803084765683624    3    2   13    5
 -0.1994296842737738    3    2   13   12
 0.01335274483257659    3    2   13   13
 0.01059201836460233    3    2   14    2
 0.02404455377187949    3    2   14    3
 -0.05199793508262354    3    2   14    4
 -0.04026182177230048    3    2   14    5
 0.004095556487326244    3    2   14   12
 -0.005253155043960784    3    2   14   13
 0.01469964522293283    3    2   14   14
 -0.03139404088830085    3    2   15    2
 -0.1693869458986352    3    2   15    3
 0.03878896484706331    3    2   15    4
 0.003190736048908963    3    2   15    5
 0.03554517400236294    3    2   15   12
 -0.1711660293623824    3    2   15   13
 0.03845428263427759    3    2   15   14
 -0.002969032850910932    3    2   15   15
 -0.0004584578634593932    3    2   16    1
 -0.05225175628719956    3    2   16    6
 0.01733917491370214    3    2   16    7
 -0.2546506943597183    3    2   16    8
 0.05549009981104412    3    2   16    9
 -0.0355086663783023    3    2   16   10
 -0.001457031283391331    3    2   16   11
 -3.514200443102689e-06    3    2   16   16
 0.3804460166547644    3    3    1    1
 0.1934946734793066    3    3    2    2
 0.01802181863206102    3    3    3    2
 0.7564101792861773    3    3    3    3
 -0.006753952329988669    3    3    4    2
 0.04596816916366961    3    3    4    3
 0.3745462456927656    3    3    4    4
 0.1774635860722121    3    3    5    2
 -0.04639628229149925    3    3    5    3
 0.01604947244246371    3    3    5    4
 0.1870973313012548    3    3    5    5
 -0.2163466993117704    3    3    6    1
 0.2535805120691281    3    3    6    6
 -0.08100002845938083    3    3    7    1
 0.1131406580441267    3    3    7    6
 0.7488835280014758    3    3    7    7
 0.04990958724404551    3    3    8    1
 0.0001084946564846325    3    3    8    6
 0.0002024765087868826    3    3    8    7
 0.6497257896913246    3    3    8    8
 0.2336342453958781    3    3    9    1
 -0.0008704248539020661    3    3    9    6
 0.0002829361983828517    3    3    9    7
 -0.1574620249497395    3    3    9    8
 0.4092452163617073    3    3    9    9
 -0.0893598711215705    3    3   10    1
 4.832967289820672e-05    3    3   10    6
 -0.0002097704590007111    3    3   10    7
 0.01815685154991027    3    3   10    8
 -0.1206718036510856    3    3   10    9
 0.05062186530031694    3    3   10   10
 -0.1572718437802501    3    3   11    1
 0.1815822956490823    3    3   11    6
 0.06647785174455367    3    3   11    7
 0.001956472086272973    3    3   11    8
 0.009293720974858338    3    3   11    9
 -0.00377440129075617    3    3   11   10
 0.1386098116149759    3    3   11   11
 -0.1798386284253441    3    3   12    2
 0.03573584383460875    3    3   12    3
 -0.02432379464523659    3    3   12    4
 -0.1808433921631575    3    3   12    5
 0.2004040578352252    3    3   12   12
 -0.03735886794577761    3    3   13    2
 -0.03215460798709824    3    3   13    3
 -0.1255284612885445    3    3   13    4
 -0.03975853016240564    3    3   13    5
 -0.02011830944416565    3    3   13   12
 0.7549539059605381    3    3   13   13
 0.02404455377187949    3    3   14    2
 -0.1268380668982601    3    3   14    3
 -0.3463741540645692    3    3   14    4
 0.02418186912237045    3    3   14    5
 0.006567974610591939    3    3   14   12
 0.04386903073738406    3    3   14   13
 0.363502798770134    3    3   14   14
 -0.1693869458986352    3    3   15    2
 0.03602921179439989    3    3   15    3
 -0.02204785016513831    3    3   15    4
 -0.1779161933800767    3    3   15    5
 0.1716580635421914    3    3   15   12
 0.04617887164852302    3    3   15   13
 -0.01638160448546607    3    3   15   14
 0.1695908076745963    3    3   15   15
 0.005028951662465052    3    3   16    1
 -0.2082504156116114    3    3   16    6
 -0.07875585756586574    3    3   16    7
 -0.05012947237477151    3    3   16    8
 -0.2340886336932083    3    3   16    9
 0.09003015017845065    3    3   16   10
 -0.1666856624722802    3    3   16   11
 0.3688872603063049    3    3   16   16
 1.728297452484838e-05    4    1    2    1
 5.905343528409338e-06    4    1    3    1
 0.3794224234459828    4    1    4    1
 1.373408900492284e-05    4    1    5    1
 0.04059057860493714    4    1    6    2
 -0.01521843715364186    4    1    6    3
 -0.2133260224709374    4    1    6    4
 0.001062545272291142    4    1    6    5
 -0.03708067871709988    4    1    7    2
 -0.3737544415801098    4    1    7    3
 0.08981177350085454    4    1    7    4
 0.002975393723162062    4    1    7    5
 -0.006432510430734039    4    1    8    2
 -0.001723008868829196    4    1    8    3
 -0.08856105107825532    4    1    8    4
 -0.03664667584629261    4    1    8    5
 0.1032767731727501    4    1    9    2
 -0.06504184951203548    4    1    9    3
 -0.2132479685149682    4    1    9    4
 -0.06228636597538875    4    1    9    5
 0.2293776965045245    4    1   10    2
 -0.0002748595532616159    4    1   10    3
 0.1078167868967733    4    1   10    4
 -0.2640451230742253    4    1   10    5
 0.001439527892763071    4    1   11    2
 0.0007742835818586474    4    1   11    3
 -0.1575440748428322    4    1   11    4
 0.004942407022263917    4    1   11    5
 0.0003298233265453497    4    1   12    1
 0.04066296384935955    4    1   12    6
 -0.03978916272682747    4    1   12    7
 0.006155893742130951    4    1   12    8
 -0.1061142561628906    4    1   12    9
 -0.2350169876898613    4    1   12   10
 0.002100116302883411    4    1   12   11
 -0.0001389072000222693    4    1   13    1
 0.01424079384001043    4    1   13    6
 0.3688649797837121    4    1   13    7
 -0.0012945049060796    4    1   13    8
 -0.0658613186033527    4    1   13    9
 -0.002282486686208647    4    1   13   10
 -0.001496412427911349    4    1   13   11
 -0.005856208410612697    4    1   14    1
 0.2079716906236493    4    1   14    6
 -0.08655576994105051    4    1   14    7
 -0.08912489832732415    4    1   14    8
 -0.215601050996951    4    1   14    9
 0.1104086600306049    4    1   14   10
 0.1702012401172388    4    1   14   11
 -0.0003911416886709356    4    1   15    1
 0.0009526356525457522    4    1   15    6
 0.00256643710163575    4    1   15    7
 0.03489567533501239    4    1   15    8
 0.05944110409481112    4    1   15    9
 0.2522675976974323    4    1   15   10
 0.005185119883473466    4    1   15   11
 0.0003467439709120106    4    1   16    2
 0.0001650212250110762    4    1   16    3
 0.005974051194938422    4    1   16    4
 -0.0004141738346725658    4    1   16    5
 -0.00165149281863125    4    1   16   12
 0.001682940768809844    4    1   16   13
 -0.3745329293420755    4    1   16   14
 0.0001892623808442944    4    1   16   15
 1.728297452484838e-05    4    2    1    1
 0.0264403427754024    4    2    2    2
 -0.005317123439893955    4    2    3    2
 -0.006753952329988669    4    2    3    3
 0.1773231742756941    4    2    4    2
 0.0163173362426965    4    2    4    3
 -0.02261162598033175    4    2    4    4
 0.01563114416815064    4    2    5    2
 -0.0407451998661762    4    2    5    3
 -0.1789241060311872    4    2    5    4
 0.002939343830502958    4    2    5    5
 0.04059057860493714    4    2    6    1
 0.05219122577948294    4    2    6    6
 -0.03708067871709988    4    2    7    1
 0.03667582064255407    4    2    7    6
 -0.0491661285743137    4    2    7    7
 -0.006432510430734035    4    2    8    1
 -2.978463224074226e-05    4    2    8    6
 7.851789704321474e-05    4    2    8    7
 -0.02158694630931707    4    2    8    8
 0.1032767731727502    4    2    9    1
 -0.000614162889142221    4    2    9    6
 0.0001300016123349944    4    2    9    7
 -0.09155029301322719    4    2    9    8
 -0.1809942550357154    4    2    9    9
 0.2293776965045245    4    2   10    1
 -0.001068818360316992    4    2   10    6
 2.954037738681485e-05    4    2   10    7
 -0.09565289916861336    4    2   10    8
 -0.2695882491066017    4    2   10    9
 0.201537336257527    4    2   10   10
 0.00143952789276307    4    2   11    1
 -0.03100577083688036    4    2   11    6
 0.03128873539745944    4    2   11    7
 -0.000256632677456723    4    2   11    8
 0.004064836325022235    4    2   11    9
 0.009552901040390886    4    2   11   10
 -0.002001858817155472    4    2   11   11
 0.06840018293323807    4    2   12    2
 -0.009913796558857695    4    2   12    3
 -0.1656725210858401    4    2   12    4
 -0.01838906440663268    4    2   12    5
 0.02196961597627061    4    2   12   12
 0.009148344954637207    4    2   13    2
 0.02376723408236807    4    2   13    3
 -0.05357062895644085    4    2   13    4
 -0.0406495220462352    4    2   13    5
 0.005873258190217502    4    2   13   12
 -0.006112558522956597    4    2   13   13
 0.1643535153920749    4    2   14    2
 -0.05199793508262354    4    2   14    3
 0.04063881128275686    4    2   14    4
 -0.1816614113085322    4    2   14    5
 -0.1845394464392416    4    2   14   12
 0.01364538593933593    4    2   14   13
 -0.01873490074335935    4    2   14   14
 -0.01669923498195065    4    2   15    2
 0.0387889648470633    4    2   15    3
 0.1706525423417264    4    2   15    4
 -0.002617360132761948    4    2   15    5
 0.0156613073243369    4    2   15   12
 0.03881487183703484    4    2   15   13
 0.1738248372190452    4    2   15   14
 0.002863734994460014    4    2   15   15
 0.0003467439709120106    4    2   16    1
 0.03904082019382099    4    2   16    6
 -0.03604285137513544    4    2   16    7
 0.006434402367569505    4    2   16    8
 -0.103314978379878    4    2   16    9
 -0.2302187257049047    4    2   16   10
 0.001321145712112563    4    2   16   11
 3.343724966141208e-06    4    2   16   16
 5.905343528396327e-06    4    3    1    1
 -0.005317123439893956    4    3    2    2
 -0.006753952329988669    4    3    3    2
 0.04596816916366962    4    3    3    3
 0.0163173362426965    4    3    4    2
 0.3745462456927656    4    3    4    3
 -0.04178334576504082    4    3    4    4
 -0.0407451998661762    4    3    5    2
 0.01604947244246371    4    3    5    3
 0.008262663572681786    4    3    5    4
 0.001137162695969333    4    3    5    5
 -0.01521843715364186    4    3    6    1
 0.02189053321107699    4    3    6    6
 -0.3737544415801098    4    3    7    1
 0.4156205411033391    4    3    7    6
 -0.02016569018189233    4    3    7    7
 -0.001723008868829199    4    3    8    1
 3.341927621894588e-05    4    3    8    6
 0.0008272362284983525    4    3    8    7
 -0.05241772977921855    4    3    8    8
 -0.06504184951203548    4    3    9    1
 0.0003693945686395016    4    3    9    6
 0.0007337017548559505    4    3    9    7
 0.05320877682513743    4    3    9    8
 -0.0005587485617580754    4    3    9    9
 -0.0002748595532616159    4    3   10    1
 -2.292438426006604e-05    4    3   10    6
 -0.0007955339828588108    4    3   10    7
 0.000812914378062384    4    3   10    8
 0.05382370611037579    4    3   10    9
 0.05248007383395439    4    3   10   10
 0.0007742835818586474    4    3   11    1
 0.01150713314880116    4    3   11    6
 0.3152472254304003    4    3   11    7
 -7.495237327651108e-05    4    3   11    8
 -0.002577601904638165    4    3   11    9
 -2.61842503536077e-06    4    3   11   10
 -0.001235520467305098    4    3   11   11
 -0.009913796558857694    4    3   12    2
 -0.02432379464523659    4    3   12    3
 0.055594393614749    4    3   12    4
 0.04147550152599917    4    3   12    5
 -0.004991057412009446    4    3   12   12
 0.02376723408236808    4    3   13    2
 -0.1255284612885445    4    3   13    3
 -0.347015172221524    4    3   13    4
 0.02395588681179632    4    3   13    5
 0.007489072150406879    4    3   13   12
 0.03887927969638207    4    3   13   13
 -0.05199793508262354    4    3   14    2
 -0.3463741540645692    4    3   14    3
 0.1139959703775091    4    3   14    4
 0.01412329429742457    4    3   14    5
 -0.01757601279298517    4    3   14   12
 0.3643997172272995    4    3   14   13
 -0.0350341638311013    4    3   14   14
 0.03878896484706331    4    3   15    2
 -0.02204785016513831    4    3   15    3
 -0.01318521696977322    4    3   15    4
 -0.0009483846462539584    4    3   15    5
 -0.03964287005395561    4    3   15   12
 -0.01621208989159124    4    3   15   13
 -0.008233146742499439    4    3   15   14
 0.001141078892025413    4    3   15   15
 0.0001650212250110753    4    3   16    1
 -0.01467770324861392    4    3   16    6
 -0.3633454619529248    4    3   16    7
 0.001732773900146577    4    3   16    8
 0.0650879339418685    4    3   16    9
 0.0002648304915545381    4    3   16   10
 0.000732586261929889    4    3   16   11
 1.17660161529521e-06    4    3   16   16
 0.3794224234459828    4    4    1    1
 0.1773231742756941    4    4    2    2
 0.0163173362426965    4    4    3    2
 0.3745462456927656    4    4    3    3
 -0.02261162598033174    4    4    4    2
 -0.04178334576504081    4    4    4    3
 0.756865157053249    4    4    4    4
 -0.1789241060311872    4    4    5    2
 0.008262663572681786    4    4    5    3
 -0.03424100262768856    4    4    5    4
 0.2007661567365783    4    4    5    5
 -0.2133260224709374    4    4    6    1
 0.2400794571188676    4    4    6    6
 0.08981177350085452    4    4    7    1
 -0.07638345216009246    4    4    7    6
 0.7640668959097634    4    4    7    7
 -0.08856105107825532    4    4    8    1
 0.0009174326540695914    4    4    8    6
 -0.0002586494416750565    4    4    8    7
 0.04929289873823459    4    4    8    8
 -0.2132479685149682    4    4    9    1
 0.001516973310482411    4    4    9    6
 -0.0003022335632840761    4    4    9    7
 0.1105964402101802    4    4    9    8
 0.3472925091089013    4    4    9    9
 0.1078167868967733    4    4   10    1
 -0.000932721863098844    4    4   10    6
 0.0002485056349832945    4    4   10    7
 -0.01047508322102941    4    4   10    8
 0.08903299078530183    4    4   10    9
 0.710114902042744    4    4   10   10
 -0.1575440748428322    4    4   11    1
 0.1794853893443406    4    4   11    6
 -0.07761745053477301    4    4   11    7
 -0.003257702799850018    4    4   11    8
 -0.008373419674657833    4    4   11    9
 0.00444608357277386    4    4   11   10
 0.1398225296220798    4    4   11   11
 -0.1656725210858402    4    4   12    2
 0.05559439361474899    4    4   12    3
 -0.0414155795783663    4    4   12    4
 0.1830896415685646    4    4   12    5
 0.186484350455636    4    4   12   12
 -0.05357062895644086    4    4   13    2
 -0.347015172221524    4    4   13    3
 0.1160116099190829    4    4   13    4
 0.01556147085028337    4    4   13    5
 -0.01655156328174392    4    4   13   12
 0.365354837039806    4    4   13   13
 0.04063881128275684    4    4   14    2
 0.1139959703775091    4    4   14    3
 -0.03483338685151481    4    4   14    4
 -0.03124546459650136    4    4   14    5
 0.02342844172796386    4    4   14   12
 -0.04008113079173973    4    4   14   13
 0.7554381020617312    4    4   14   14
 0.1706525423417264    4    4   15    2
 -0.01318521696977322    4    4   15    3
 0.02852950592946532    4    4   15    4
 -0.1916027127049879    4    4   15    5
 -0.1752006060278861    4    4   15   12
 -0.009644768934886654    4    4   15   13
 0.03435012371883912    4    4   15   14
 0.1832219766845421    4    4   15   15
 0.005974051194938402    4    4   16    1
 -0.2056146489051645    4    4   16    6
 0.08733554549524102    4    4   16    7
 0.08796115282851831    4    4   16    8
 0.2130191213138493    4    4   16    9
 -0.1078462346775957    4    4   16   10
 -0.1681846240241077    4    4   16   11
 0.3699083840134271    4    4   16   16
 3.083484654635427e-05    5    1    2    1
 1.518214526733536e-05    5    1    3    1
 1.373408900492978e-05    5    1    4    1
 0.3584018595557524    5    1    5    1
 -0.009836148320764073    5    1    6    2
 0.002887332341981851    5    1    6    3
 0.001062545272291142    5    1    6    4
 -0.01447225849519828    5    1    6    5
 0.0004646844734983719    5    1    7    2
 0.003710326292389264    5    1    7    3
 0.002975393723162063    5    1    7    4
 0.001474163970294195    5    1    7    5
 0.1112323271519026    5    1    8    2
 0.2361850425167573    5    1    8    3
 -0.03664667584629261    5    1    8    4
 -0.007026424060575253    5    1    8    5
 0.2317443090251174    5    1    9    2
 -0.1199450123391575    5    1    9    3
 -0.06228636597538877    5    1    9    4
 -0.005935338915782476    5    1    9    5
 -0.07381288623195484    5    1   10    2
 -0.005837785938965705    5    1   10    3