 &FCI NORB=  16,NELEC= 8,MS2=0,
  ORBSYM=1,1,1,1,1,1,1,1,1,1,1,1,1,1,1,1
  ISYM=1,
 &END
 0.6265362770115916    1    1    1    1
 1.40165656858926e-15    1    1    2    1
 0.6559165992114961    1    1    2    2
 -0.0004882472557295042    1    1    3    2
 0.6298837095428902    1    1    3    3
 0.0004517975821579753    1    1    4    2
 0.0002016203141210465    1    1    4    3
 0.622795455568841    1    1    4    4
 -0.0003677860320632134    1    1    5    2
 -0.000122506618713436    1    1    5    3
 -0.0008500100788489309    1    1    5    4
 0.5944858117767484    1    1    5    5
 0.009320342074721785    1    1    6    1
 -1.813860070172882e-15    1    1    6    3
 0.6598882107865202    1    1    6    6
 0.0110384447666985    1    1    7    1
 -0.0001730871278878906    1    1    7    6
 0.6514094897716238    1    1    7    7
 -0.01706058615153999    1    1    8    1
 -1.069131762287956e-15    1    1    8    2
 -0.0004094024735415457    1    1    8    6
 0.0003211454572552227    1    1    8    7
 0.6276210164884124    1    1    8    8
 0.01528843202326372    1    1    9    1
 -0.0001936660962517366    1    1    9    6
 0.0003543168849731507    1    1    9    7
 0.000426098388055335    1    1    9    8
 0.6217127157390385    1    1    9    9
 -0.001510455873915059    1    1   10    1
 2.462118010157718e-05    1    1   10    6
 -4.15676801533843e-05    1    1   10    7
 -5.034656635798107e-05    1    1   10    8
 -5.179548180428428e-05    1    1   10    9
 0.6005532337795951    1    1   10   10
 -0.014842537306899    1    1   11    1
 -0.0003420323170745691    1    1   11    6
 0.0002654245161258549    1    1   11    7
 0.0006738284427426643    1    1   11    8
 0.0003084960966918422    1    1   11    9
 -3.849058967157152e-05    1    1   11   10
 0.588824290883265    1    1   11   11
 -0.004436739686518354    1    1   12    2
 0.01037454809747041    1    1   12    3
 0.009482784861477704    1    1   12    4
 -0.004350549270200312    1    1   12    5
 -1.018098874248832e-15    1    1   12    6
 1.227913170448458e-15    1    1   12    8
 0.6551796507994039    1    1   12   12
 0.01020677676229722    1    1   13    2
 -0.02566543898580663    1    1   13    3
 0.004832702616602506    1    1   13    4
 -0.003330812533108116    1    1   13    5
 1.610101212513176e-15    1    1   13    6
 -0.0001023924239174218    1    1   13   12
 0.6273288062761293    1    1   13   13
 0.009254602404911726    1    1   14    2
 0.004775535663795794    1    1   14    3
 0.01724009803869043    1    1   14    4
 -0.0126567075185124    1    1   14    5
 8.654720319805622e-05    1    1   14   12
 3.806951278317872e-05    1    1   14   13
 0.6209562306774569    1    1   14   14
 -0.004294697056621655    1    1   15    2
 -0.003626759046741507    1    1   15    3
 -0.01269450264127822    1    1   15    4
 0.01120056479078448    1    1   15    5
 -7.327914621240925e-05    1    1   15   12
 -1.89974067343196e-05    1    1   15   13
 -0.0001649515115243715    1    1   15   14
 0.5934537361470303    1    1   15   15
 0.0004107670977815947    1    1   16    1
 0.009340832870568477    1    1   16    6
 -0.01085631302175125    1    1   16    7
 -0.01857265773374564    1    1   16    8
 -0.01320123150062464    1    1   16    9
 0.001602708784130213    1    1   16   10
 -0.01531142840560397    1    1   16   11
 0.6234547655399506    1    1   16   16
 1.40165656858926e-15    2    1    1    1
 0.6559165992114961    2    1    2    1
 1.683765973869988e-15    2    1    2    2
 -0.0004882472557295164    2    1    3    1
 -2.166669621495032e-15    2    1    3    2
 2.603819937441187e-15    2    1    3    3
 0.0004517975821579411    2    1    4    1
 -1.003645951069831e-15    2    1    4    2
 -0.0003677860320632081    2    1    5    1
 0.3127261847246194    2    1    6    2
 -0.5995633109037894    2    1    6    3
 -0.005743497789754274    2    1    6    4
 -0.007452046203076661    2    1    6    5
 2.561429789370451e-15    2    1    6    6
 0.3391592790616411    2    1    7    2
 0.1335302894438526    2    1    7    3
 0.5300720274026084    2    1    7    4
 -0.1919870226477974    2    1    7    5
 -1.055308184588766e-15    2    1    8    1
 -0.3218319938770877    2    1    8    2
 -0.08732439843319478    2    1    8    3
 0.1407509583544999    2    1    8    4
 0.01128324618093223    2    1    8    5
 0.3471963845760143    2    1    9    2
 0.1220447772599413    2    1    9    3
 -0.1884222598662202    2    1    9    4
 0.02858884266945256    2    1    9    5
 -0.024313522029661    2    1   10    2
 0.007622420038640856    2    1   10    3
 -0.02852720350776166    2    1   10    4
 -0.1029285476857243    2    1   10    5
 -0.1350038034688966    2    1   11    2
 -0.01376255874089585    2    1   11    3
 0.002613073660890076    2    1   11    4
 -0.09278614117419087    2    1   11    5
 -0.00443673968651834    2    1   12    1
 -2.010761349091617e-15    2    1   12    2
 1.000068083900629e-15    2    1   12    3
 -0.3177044011125623    2    1   12    6
 0.3361719353928739    2    1   12    7
 0.375687069512859    2    1   12    8
 0.3217755149094167    2    1   12    9
 -0.02607060735178119    2    1   12   10
 0.1400759204367179    2    1   12   11
 0.01020677676229721    2    1   13    1
 -1.325328735646281e-15    2    1   13    3
 0.5687993201505362    2    1   13    6
 0.1342179806982741    2    1   13    7
 0.09903638328960242    2    1   13    8
 0.1164112932471153    2    1   13    9
 0.00864487382084126    2    1   13   10
 0.009702354253147482    2    1   13   11
 0.009254602404911669    2    1   14    1
 -0.0005259476602728484    2    1   14    6
 0.5039921115458796    2    1   14    7
 -0.1699069781442867    2    1   14    8
 -0.1609218014571478    2    1   14    9
 -0.03261786643479096    2    1   14   10
 0.0009473118626015111    2    1   14   11
 -0.004294697056621627    2    1   15    1
 0.01284532460716747    2    1   15    6
 -0.1878779506340007    2    1   15    7
 0.0001133223375748678    2    1   15    8
 0.03254705192398984    2    1   15    9
 -0.101556502513543    2    1   15   10
 0.0930098847292298    2    1   15   11
 0.004415088801329074    2    1   16    2
 -0.01030998926029237    2    1   16    3
 -0.009203569337185783    2    1   16    4
 0.004282930177158815    2    1   16    5
 1.529735573510636e-15    2    1   16    6
 -1.386098267414093e-15    2    1   16    8
 -0.6240138085397768    2    1   16   12
 0.008975975962459609    2    1   16   13
 -0.00641105576147347    2    1   16   14
 0.003020307833755592    2    1   16   15
 0.6559165992114961    2    2    1    1
 1.628309032747355e-15    2    2    2    1
 1.340755215122226    2    2    2    2
 -2.167103302364026e-15    2    2    3    1
 -0.09868864792654027    2    2    3    2
 0.6086513849194096    2    2    3    3
 0.09643625598658459    2    2    4    2
 0.05667773582427605    2    2    4    3
 0.5215303017193009    2    2    4    4
 -0.06792447585663733    2    2    5    2
 -0.0275989638155859    2    2    5    3
 -0.157810317136363    2    2    5    4
 0.0904501910577708    2    2    5    5
 0.3127261847246194    2    2    6    1
 3.544646563480631e-15    2    2    6    2
 -3.738102721174866e-15    2    2    6    3
 1.327612079024362    2    2    6    6
 0.339159279061641    2    2    7    1
 -2.471764112832453e-15    2    2    7    2
 -1.633865568881343e-15    2    2    7    4
 -0.01307600533824248    2    2    7    6
 1.32593224698807    2    2    7    7
 -0.3218319938770877    2    2    8    1
 1.793622758997082e-15    2    2    8    3
 -0.159955273648886    2    2    8    6
 0.007735612035435159    2    2    8    7
 0.4759279519532014    2    2    8    8
 0.3471963845760143    2    2    9    1
 0.0007149111952836932    2    2    9    6
 0.08898021920853326    2    2    9    7
 0.01788895100291098    2    2    9    8
 0.4929301543005835    2    2    9    9
 -0.024313522029661    2    2   10    1
 0.0009972007645480576    2    2   10    6
 -0.01075522210963826    2    2   10    7
 -0.002177669373845933    2    2   10    8
 -0.01578178080478931    2    2   10    9
 0.04014888408976088    2    2   10   10
 -0.1350038034688966    2    2   11    1
 -0.103792797767213    2    2   11    6
 0.004496339701531964    2    2   11    7
 0.1474372993314759    2    2   11    8
 -0.003894910905289838    2    2   11    9
 -0.0006144505379311828    2    2   11   10
 0.08699674893811581    2    2   11   11
 -2.038516924707245e-15    2    2   12    1
 -0.01938463657114801    2    2   12    2
 0.3642906695034983    2    2   12    3
 0.2644901144676349    2    2   12    4
 -0.09132043791946742    2    2   12    5
 -2.656005557912186e-15    2    2   12    6
 -1.512163875019845e-15    2    2   12    7
 1.676030868995662e-15    2    2   12    8
 1.314982667713524    2    2   12   12
 0.3510678931587221    2    2   13    2
 -0.4804809920808151    2    2   13    3
 0.09088749856034518    2    2   13    4
 -0.04187623878880847    2    2   13    5
 -0.09140662549036375    2    2   13   12
 0.5559369924362568    2    2   13   13
 0.2605666096382784    2    2   14    2
 0.09544961706190275    2    2   14    3
 0.4224997965174205    2    2   14    4
 -0.1536178393752738    2    2   14    5
 0.0829825592552738    2    2   14   12
 0.04586722115929746    2    2   14   13
 0.4796396449320138    2    2   14   14
 -0.09081988985968943    2    2   15    2
 -0.04728988355162132    2    2   15    3
 -0.1576705579618748    2    2   15    4
 0.05948679786720068    2    2   15    5
 -0.06266335146683213    2    2   15   12
 -0.02140519560144806    2    2   15   13
 -0.1482435026139397    2    2   15   14
 0.08805360209948963    2    2   15   15
 0.00441508880132906    2    2   16    1
 2.738803107915633e-15    2    2   16    2
 -1.16009632455949e-15    2    2   16    3
 0.3107830793799036    2    2   16    6
 -0.3242703568096908    2    2   16    7
 -0.3547592930954768    2    2   16    8
 -0.302931945664945    2    2   16    9
 0.02477413483723856    2    2   16   10
 -0.1328553310589368    2    2   16   11
 0.5945353354944025    2    2   16   16
 -0.0004882472557294903    3    1    2    1
 -2.138914045879403e-15    3    1    2    2
 0.6298837095428902    3    1    3    1
 2.626371342628886e-15    3    1    3    2
 0.0002016203141210447    3    1    4    1
 -0.0001225066187134499    3    1    5    1
 -1.841612257656722e-15    3    1    6    1
 -0.5995633109037894    3    1    6    2
 -0.1024208804688949    3    1    6    3
 0.1083031137217009    3    1    6    4
 -0.02119884594863773    3    1    6    5
 0.1335302894438526    3    1    7    2
 -0.09836227989802426    3    1    7    3
 0.1097244647071711    3    1    7    4
 -0.03607554444618716    3    1    7    5
 -1.20496365977555e-15    3    1    7    6
 -0.08732439843319477    3    1    8    2
 -0.4758196387454056    3    1    8    3
 0.1417692789204857    3    1    8    4
 -0.004977345940302688    3    1    8    5
 1.83775592840611e-15    3    1    8    6
 0.1220447772599413    3    1    9    2
 -0.3440724061844336    3    1    9    3
 0.05353264954903843    3    1    9    4
 0.007814808584762051    3    1    9    5
 -1.429080107289565e-15    3    1    9    6
 0.007622420038640852    3    1   10    2
 0.02999456638245916    3    1   10    3
 0.1732904309061521    3    1   10    4
 0.5607840424439183    3    1   10    5
 -0.01376255874089587    3    1   11    2
 -0.1434321126144319    3    1   11    3
 0.008595046766091788    3    1   11    4
 -0.07431220882338875    3    1   11    5
 0.01037454809747041    3    1   12    1
 -1.984523656517467e-15    3    1   12    3
 0.5912991082939015    3    1   12    6
 0.1555924015767741    3    1   12    7
 0.1122957165569389    3    1   12    8
 0.1153672048047992    3    1   12    9
 0.009359939749392761    3    1   12   10
 0.01474723575290836    3    1   12   11
 -0.0256654389858066    3    1   13    1
 -1.398187121637307e-15    3    1   13    2
 0.09940793674366757    3    1   13    6
 -0.08202150054490961    3    1   13    7
 0.4285404148224639    3    1   13    8
 -0.4062016054011516    3    1   13    9
 0.02858536317503693    3    1   13   10
 0.1611302927720896    3    1   13   11
 0.0047755356637958    3    1   14    1
 -0.09723889098568893    3    1   14    6
 0.0961318089214743    3    1   14    7
 -0.1238367464313442    3    1   14    8
 0.06238597211405818    3    1   14    9
 0.1936483562784384    3    1   14   10
 -0.004015806300618408    3    1   14   11
 -0.003626759046741534    3    1   15    1
 0.02007388109594179    3    1   15    6
 -0.0341535113425949    3    1   15    7
 0.006177244062971366    3    1   15    8
 0.007680551670070854    3    1   15    9
 0.5493451875073594    3    1   15   10
 0.0781834638056144    3    1   15   11
 -0.01030998926029237    3    1   16    2
 0.02539460535675125    3    1   16    3
 -0.005378933202364117    3    1   16    4
 0.003702214591520037    3    1   16    5
 -1.925922529094626e-15    3    1   16    6
 -0.009002175009500972    3    1   16   12
 -0.6232867172374283    3    1   16   13
 -0.01473621731265463    3    1   16   14
 0.001761329984346652    3    1   16   15
 -0.0004882472557294903    3    2    1    1
 -2.22218077272629e-15    3    2    2    1
 -0.09868864792654025    3    2    2    2
 2.600350490489234e-15    3    2    3    1
 0.6086513849194096    3    2    3    2
 0.07587863109600396    3    2    3    3
 0.05667773582427608    3    2    4    2
 -0.08328124482312281    3    2    4    3
 0.09569280821170871    3    2    4    4
 -0.02759896381558592    3    2    5    2
 0.02303085480807893    3    2    5    3
 -0.05957213552656419    3    2    5    4
 -0.0732773101152039    3    2    5    5
 -0.5995633109037894    3    2    6    1
 -3.793613872406123e-15    3    2    6    2
 1.365406946578565e-15    3    2    6    3
 -0.373339762311135    3    2    6    6
 0.1335302894438526    3    2    7    1
 0.006106592825703802    3    2    7    6
 0.2920902894284723    3    2    7    7
 -0.0873243984331948    3    2    8    1
 1.751989395573639e-15    3    2    8    2
 -1.848239443436039e-15    3    2    8    3
 0.7081676581310979    3    2    8    6
 0.02232198596039911    3    2    8    7
 0.3061240971617647    3    2    8    8
 0.1220447772599413    3    2    9    1
 -0.03576085510118621    3    2    9    6
 0.05218553873695482    3    2    9    7
 -0.01462944983199715    3    2    9    8
 -0.0528479629084099    3    2    9    9
 0.007622420038640856    3    2   10    1
 -0.0008117182149680608    3    2   10    6
 -0.01230012360877399    3    2   10    7
 -0.001362717253414377    3    2   10    8
 -0.02811653688353878    3    2   10    9
 -0.2076449419260984    3    2   10   10
 -0.01376255874089587    3    2   11    1
 0.2582903108947104    3    2   11    6
 0.00754900371963414    3    2   11    7
 0.06237508726627151    3    2   11    8
 0.001184476492249393    3    2   11    9
 -0.0002658593526480518    3    2   11   10
 0.03619540155311059    3    2   11   11
 0.3642906695034984    3    2   12    2
 -0.4987197450325387    3    2   12    3
 0.111365514599891    3    2   12    4
 -0.04915600136648199    3    2   12    5
 1.177541179866429e-15    3    2   12    6
 -0.06605236314629595    3    2   12   12
 -1.366962099069724e-15    3    2   13    1
 -0.4804809920808151    3    2   13    2
 -0.2501942904315986    3    2   13    3
 0.1510687134566308    3    2   13    4
 -0.0181917216121246    3    2   13    5
 -1.173604806002301e-15    3    2   13    6
 0.5814889649136348    3    2   13   12
 0.05483199288999872    3    2   13   13
 0.09544961706190276    3    2   14    2
 0.1401511479140917    3    2   14    3
 0.0231551042905559    3    2   14    4
 -0.05915920529099607    3    2   14    5
 0.05921705076935625    3    2   14   12
 -0.06940770695765963    3    2   14   13
 0.08149977986928458    3    2   14   14
 -0.04728988355162134    3    2   15    2
 -0.01945793370405757    3    2   15    3
 -0.05466886813558144    3    2   15    4
 -0.09617640875390486    3    2   15    5
 -0.0265968036343807    3    2   15   12
 0.02192088969638045    3    2   15   13
 -0.05983145114632658    3    2   15   14
 -0.06988489087895547    3    2   15   15
 -0.01030998926029235    3    2   16    1
 -1.173974112367304e-15    3    2   16    2
 1.568190022283034e-15    3    2   16    3
 -0.5608182081619154    3    2   16    6
 -0.1504684458089239    3    2   16    7
 -0.09961893970860328    3    2   16    8
 -0.1161949052618454    3    2   16    9
 -0.007750316832660906    3    2   16   10
 -0.01133996287907004    3    2   16   11
 -8.887374197432199e-05    3    2   16   16
 0.6298837095428902    3    3    1    1
 2.586472702681419e-15    3    3    2    1
 0.6086513849194096    3    3    2    2
 0.07587863109600393    3    3    3    2
 1.242655037437081    3    3    3    3
 -0.08328124482312282    3    3    4    2
 -0.1638181483846037    3    3    4    3
 0.1230191665513473    3    3    4    4
 0.02303085480807894    3    3    5    2
 0.05413117097552843    3    3    5    3
 0.1507587537925815    3    3    5    4
 0.5358318320967181    3    3    5    5
 -0.1024208804688949    3    3    6    1
 1.337651370962936e-15    3    3    6    2
 -2.994390217551934e-15    3    3    6    3
 1.142064535795871    3    3    6    6
 -0.09836227989802426    3    3    7    1
 0.02538074567150305    3    3    7    6
 0.1290106550827098    3    3    7    7
 -0.4758196387454056    3    3    8    1
 -1.806714500229845e-15    3    3    8    2
 -1.660130366509804e-15    3    3    8    3
 0.3735303232766933    3    3    8    6
 0.03301853742701596    3    3    8    7
 0.7166452734588412    3    3    8    8
 -0.3440724061844336    3    3    9    1
 -0.01634997653404308    3    3    9    6
 0.1852915965468097    3    3    9    7
 -0.01098454728026303    3    3    9    8
 0.5291173148408725    3    3    9    9
 0.02999456638245913    3    3   10    1
 -0.0003025042065956365    3    3   10    6
 -0.007391932426585708    3    3   10    7
 -0.0007494675291755248    3    3   10    8
 0.01483665874122125    3    3   10    9
 1.141858831226229    3    3   10   10
 -0.1434321126144319    3    3   11    1
 0.08348918856460538    3    3   11    6
 0.002597295037433317    3    3   11    7
 0.2187450807639121    3    3   11    8
 -0.02553397871816037    3    3   11    9
 0.003956980156781876    3    3   11   10
 0.0916695142918082    3    3   11   11
 -1.984523656517467e-15    3    3   12    1
 -0.4987197450325387    3    3   12    2
 -0.2675726066825074    3    3   12    3
 0.1615478942793746    3    3   12    4
 -0.02018305238237793    3    3   12    5
 1.693198532770612e-15    3    3   12    8
 0.6093249651634293    3    3   12   12
 -0.2501942904315985    3    3   13    2
 -0.1409887218847562    3    3   13    3
 0.07497292158152778    3    3   13    4
 -0.0007856056122835242    3    3   13    5
 3.290519712175616e-15    3    3   13    6
 0.08401946607398759    3    3   13   12
 1.242994029524069    3    3   13   13
 0.1401511479140917    3    3   14    2
 0.07066839860609239    3    3   14    3
 0.03342108492881912    3    3   14    4
 0.1809009121742609    3    3   14    5
 -0.07168439566903054    3    3   14   12
 -0.1294301777390974    3    3   14   13
 0.1220662807825192    3    3   14   14
 -0.01945793370405758    3    3   15    2
 0.001485075079250109    3    3   15    3
 0.1592569024983655    3    3   15    4
 0.5043907900072941    3    3   15    5
 0.02287580456693136    3    3   15   12
 0.05224252181691938    3    3   15   13
 0.1681179656814558    3    3   15   14
 0.5154573035254194    3    3   15   15
 0.0253946053567513    3    3   16    1
 1.540434446667405e-15    3    3   16    2
 -0.1046501036267594    3    3   16    6
 0.07692936827591058    3    3   16    7
 -0.4245092208305001    3    3   16    8
 0.4004343621593131    3    3   16    9
 -0.0314976285941411    3    3   16   10
 -0.1600084059055712    3    3   16   11
 0.6197501657607745    3    3   16   16
 0.0004517975821579407    4    1    2    1
 -1.007006977804537e-15    4    1    2    2
 0.0002016203141210378    4    1    3    1
 0.622795455568841    4    1    4    1
 -0.0008500100788489499    4    1    5    1
 -0.005743497789754278    4    1    6    2
 0.1083031137217009    4    1    6    3
 -0.1188027687829894    4    1    6    4
 -0.01447115149277985    4    1    6    5
 0.5300720274026085    4    1    7    2
 0.1097244647071711    4    1    7    3
 -0.1028132501845974    4    1    7    4
 -0.02553196048407969    4    1    7    5
 -1.174510284222916e-15    4    1    7    6
 0.1407509583544999    4    1    8    2
 0.1417692789204857    4    1    8    3
 0.4960621429208598    4    1    8    4
 0.1532342596879917    4    1    8    5
 1.530080315920168e-15    4    1    8    7
 -0.1884222598662202    4    1    9    2
 0.05353264954903843    4    1    9    3
 0.3769319162139414    4    1    9    4
 -0.2853779453144113    4    1    9    5
 -0.02852720350776165    4    1   10    2
 0.1732904309061521    4    1   10    3
 -0.05358066984868873    4    1   10    4
 -0.03577003890375813    4    1   10    5
 0.00261307366089007    4    1   11    2
 0.008595046766091789    4    1   11    3
 -0.2096404192619761    4    1   11    4
 -0.432175180556185    4    1   11    5
 0.009482784861477694    4    1   12    1
 -0.01414318343212579    4    1   12    6
 0.5312508836108331    4    1   12    7
 -0.1836801473929586    4    1   12    8
 -0.1819649679366035    4    1   12    9
 -0.02852282731140784    4    1   12   10
 -0.00358194753924622    4    1   12   11
 1.061976027949552e-15    4    1   12   12
 0.004832702616602503    4    1   13    1
 -0.1097566406397327    4    1   13    6
 0.09308296985239871    4    1   13    7
 -0.1240182820679741    4    1   13    8
 0.0626099262197268    4    1   13    9
 0.1826415450265074    4    1   13   10
 -0.01401827449539826    4    1   13   11
 0.01724009803869041    4    1   14    1
 0.1083164585056264    4    1   14    6
 -0.09781814750384842    4    1   14    7
 -0.4420618126422767    4    1   14    8
 0.4377919577717067    4    1   14    9
 -0.05540652329010661    4    1   14   10
 0.2245308754441063    4    1   14   11
 1.216257997094239e-15    4    1   14   12
 -0.01269450264127824    4    1   15    1
 0.01460620722329784    4    1   15    6
 -0.02327781928910043    4    1   15    7
 -0.1675408231859323    4    1   15    8
 -0.2508388742415896    4    1   15    9
 -0.03772609521460355    4    1   15   10
 0.435752110477479    4    1   15   11
 -0.009203569337185784    4    1   16    2
 -0.005378933202364117    4    1   16    3
 -0.0172431308473679    4    1   16    4
 0.0128560224003713    4    1   16    5
 0.006872890611944629    4    1   16   12
 0.01475535143985571    4    1   16   13
 -0.6232204471376571    4    1   16   14
 0.01497946414155354    4    1   16   15
 0.0004517975821579684    4    2    1    1
 0.09643625598658467    4    2    2    2
 0.05667773582427608    4    2    3    2
 -0.08328124482312282    4    2    3    3
 0.521530301719301    4    2    4    2
 0.09569280821170872    4    2    4    3
 -0.0842899272125715    4    2    4    4
 -0.157810317136363    4    2    5    2
 -0.05957213552656418    4    2    5    3
 0.1003264042535066    4    2    5    4
 0.07150401513013624    4    2    5    5
 -0.005743497789754278    4    2    6    1
 -0.1876646133281401    4    2    6    6
 0.5300720274026086    4    2    7    1
 -1.647634936471909e-15    4    2    7    2
 -0.02324350772292851    4    2    7    6
 0.4289559400543287    4    2    7    7
 0.1407509583544999    4    2    8    1
 -0.09407361084847582    4    2    8    6
 0.04740313117802917    4    2    8    7
 0.02136730650438345    4    2    8    8
 -0.1884222598662202    4    2    9    1
 -0.001357121011338637    4    2    9    6
 0.6400129048023595    4    2    9    7
 -0.04921432848563399    4    2    9    8
 -0.4230980212385897    4    2    9    9
 -0.02852720350776166    4    2   10    1
 0.0003661859887278041    4    2   10    6
 -0.02051342607962278    4    2   10    7
 0.004683552014216588    4    2   10    8
 0.06583531443396701    4    2   10    9
 0.02513881132191719    4    2   10   10
 0.002613073660890074    4    2   11    1
 -0.002004880186218443    4    2   11    6
 0.003215620273143886    4    2   11    7
 -0.1223711922270501    4    2   11    8
 0.007041218897980121    4    2   11    9
 -0.001899602304346726    4    2   11   10
 0.1347600101011196    4    2   11   11
 0.2644901144676349    4    2   12    2
 0.111365514599891    4    2   12    3
 0.4478899896096565    4    2   12    4
 -0.1627077330973609    4    2   12    5
 0.07089442966195302    4    2   12   12
 0.0908874985603452    4    2   13    2
 0.1510687134566308    4    2   13    3
 0.02115350243226917    4    2   13    4
 -0.05464839903419298    4    2   13    5
 0.03379275862764287    4    2   13   12
 -0.08072416895519073    4    2   13   13
 0.4224997965174205    4    2   14    2
 0.02315510429055589    4    2   14    3
 -0.3089888203101173    4    2   14    4
 0.01388124056396243    4    2   14    5
 -1.435869182240927e-15    4    2   14    6
 1.872606887262651e-15    4    2   14    8
 0.5095702268044023    4    2   14   12
 0.07942280513288145    4    2   14   13
 -0.05970122364876942    4    2   14   14
 -0.1576705579618748    4    2   15    2
 -0.05466886813558145    4    2   15    3
 0.02309522912689339    4    2   15    4
 -0.07012005485508881    4    2   15    5
 -0.1588225461118913    4    2   15   12
 -0.05875765997008268    4    2   15   13
 0.09498912581331551    4    2   15   14
 0.06916186386098527    4    2   15   15
 -0.009203569337185802    4    2   16    1
 0.01088466600629243    4    2   16    6
 -0.5036482153138416    4    2   16    7
 0.1768947355466809    4    2   16    8
 0.1684359872025834    4    2   16    9
 0.03012082055612468    4    2   16   10
 0.003090103284633071    4    2   16   11
 8.876900282656216e-05    4    2   16   16
 0.0002016203141210413    4    3    1    1
 0.05667773582427608    4    3    2    2
 -0.08328124482312282    4    3    3    2
 -0.1638181483846037    4    3    3    3
 0.09569280821170872    4    3    4    2
 0.1230191665513473    4    3    4    3
 0.08912717025793424    4    3    4    4
 -0.05957213552656419    4    3    5    2
 0.1507587537925815    4    3    5    3
 -0.01310443839455308    4    3    5    4
 0.01817141590612485    4    3    5    5
 0.1083031137217009    4    3    6    1
 -0.07854017404102487    4    3    6    6
 0.1097244647071711    4    3    7    1
 -0.01104261820618492    4    3    7    6
 0.1746185244807516    4    3    7    7
 0.1417692789204857    4    3    8    1
 -0.2006255261735206    4    3    8    6
 -0.002323162080096722    4    3    8    7
 -0.04034223330283464    4    3    8    8
 0.05353264954903843    4    3    9    1
 0.008406259190235585    4    3    9    6
 0.05694022376460149    4    3    9    7
 -0.006261277070640598    4    3    9    8
 -0.07445632703617217    4    3    9    9
 0.1732904309061521    4    3   10    1
 0.0003561479860075177    4    3   10    6
 -0.08087047900050949    4    3   10    7
 -0.009478219594539903    4    3   10    8
 -0.2452531071936611    4    3   10    9
 -0.08380677985091838    4    3   10   10
 0.008595046766091791    4    3   11    1
 -0.04965292049236886    4    3   11    6
 -0.0009315568204994545    4    3   11    7
 -0.1006522351926196    4    3   11    8
 0.008684480199225219    4    3   11    9
 0.00668344854766302    4    3   11   10
 0.1022869810938399    4    3   11   11
 0.111365514599891    4    3   12    2
 0.1615478942793746    4    3   12    3
 0.02170415571292524    4    3   12    4
 -0.05599363605299238    4    3   12    5
 0.04692024760116147    4    3   12   12
 0.1510687134566308    4    3   13    2
 0.07497292158152777    4    3   13    3
 0.02750929013426127    4    3   13    4
 0.1724611381342829    4    3   13    5
 -0.08445505633362181    4    3   13   12
 -0.1636618017956273    4    3   13   13
 0.02315510429055589    4    3   14    2
 0.03342108492881912    4    3   14    3
 -0.07366336451519674    4    3   14    4
 -0.06915330274878898    4    3   14    5
 0.08918357958959965    4    3   14   12
 0.1193430329673389    4    3   14   13
 0.0962404969871372    4    3   14   14
 -0.05466886813558144    4    3   15    2
 0.1592569024983655    4    3   15    3
 -0.06555280564408164    4    3   15    4
 -0.09127636930354362    4    3   15    5
 -0.058889221251885    4    3   15   12
 0.1565864261839833    4    3   15   13
 -0.01316233141971602    4    3   15   14
 0.02034288360359762    4    3   15   15
 -0.005378933202364111    4    3   16    1
 0.1067518845957548    4    3   16    6
 -0.09758811867394548    4    3   16    7
 0.1357796095808684    4    3   16    8
 -0.07076138876068312    4    3   16    9
 -0.1798209096397996    4    3   16   10
 0.00994178139387889    4    3   16   11
 3.838834223756499e-05    4    3   16   16
 0.622795455568841    4    4    1    1
 0.521530301719301    4    4    2    2
 0.09569280821170871    4    4    3    2
 0.1230191665513473    4    4    3    3
 -0.08428992721257157    4    4    4    2
 0.08912717025793424    4    4    4    3
 1.36274980480903    4    4    4    4
 0.1003264042535066    4    4    5    2
 -0.01310443839455308    4    4    5    3
 0.1124263383734601    4    4    5    4
 0.4891792751128206    4    4    5    5
 -0.1188027687829894    4    4    6    1
 0.07941302652131786    4    4    6    6
 -0.1028132501845974    4    4    7    1
 1.030208904295726e-15    4    4    7    4
 -0.01091649072105566    4    4    7    6
 0.9328628254115237    4    4    7    7
 0.4960621429208598    4    4    8    1
 1.282102950281999e-15    4    4    8    4
 -0.1351994298219039    4    4    8    6
 -0.04247735290848322    4    4    8    7
 0.9543111650140889    4    4    8    8
 0.3769319162139415    4    4    9    1
 0.009781719629714927    4    4    9    6
 -0.4031547588860372    4    4    9    7
 -0.005819774634345758    4    4    9    8
 0.8717544698151578    4    4    9    9
 -0.05358066984868873    4    4   10    1
 -0.0006433532096138091    4    4   10    6