 &FCI NORB=  14,NELEC= 8,MS2=0,
  ORBSYM=1,1,1,1,1,1,1,1,1,1,1,1,1,1
  ISYM=1,
 &END
 0.1539209388762669    1    1    1    1
 -0.002061393325677093    1    1    2    1
 0.1539642215236715    1    1    2    2
 -0.0002878543683840253    1    1    3    1
 -1.271041730234457e-06    1    1    3    2
 0.1538058500467907    1    1    3    3
 -1.189471309498424e-05    1    1    4    1
 0.0003635925734403467    1    1    4    2
 0.001308382129385589    1    1    4    3
 0.1544119897909676    1    1    4    4
 -0.0001305205182789526    1    1    5    1
 0.001572276741636589    1    1    5    2
 -0.0002285002421906737    1    1    5    3
 -1.26971360140532e-06    1    1    5    4
 0.1533660306332853    1    1    5    5
 0.0001307317696471275    1    1    6    1
 4.355973558362036e-05    1    1    6    2
 -0.0005979492089684801    1    1    6    3
 -0.001431230192727808    1    1    6    4
 -0.0004874126592389234    1    1    6    5
 0.1541221156143636    1    1    6    6
 -0.0001734498247268138    1    1    7    1
 -0.0004275732719244479    1    1    7    2
 -9.175502749570602e-05    1    1    7    3
 -0.0004803390322692261    1    1    7    4
 0.001348805533480215    1    1    7    5
 8.642854168721542e-08    1    1    7    6
 0.1536522020175165    1    1    7    7
 -0.0007286749542687425    1    1    8    1
 -0.0001010285913303384    1    1    8    2
 5.193154750840479e-05    1    1    8    3
 -9.197217613143502e-05    1    1    8    4
 0.0001312235147885345    1    1    8    5
 9.506306479582435e-05    1    1    8    6
 -0.00147602126102102    1    1    8    7
 0.1541256900593784    1    1    8    8
 5.620889369110406e-05    1    1    9    1
 -7.674662430368941e-05    1    1    9    2
 -0.0001828903269610058    1    1    9    3
 -0.0003068067354113453    1    1    9    4
 -9.378269122941848e-05    1    1    9    5
 0.001459587192488806    1    1    9    6
 0.0001071257336131975    1    1    9    7
 -5.455351682701753e-07    1    1    9    8
 0.1536526302569994    1    1    9    9
 -6.619369245720874e-05    1    1   10    1
 0.0007398419489318304    1    1   10    2
 -0.00012501801353898    1    1   10    3
 8.86005044032738e-05    1    1   10    4
 -0.0001311771776902511    1    1   10    5
 9.043607644500587e-05    1    1   10    6
 -0.0003025399219813048    1    1   10    7
 0.001435593697578851    1    1   10    8
 -0.0004856165596585343    1    1   10    9
 0.1543957770169471    1    1   10   10
 -5.707833046849145e-06    1    1   11    1
 1.382875775495385e-06    1    1   11    2
 -0.0002844156873089963    1    1   11    3
 0.0001291644943462976    1    1   11    4
 7.65517519463909e-05    1    1   11    5
 0.0001272776168077848    1    1   11    6
 9.342867436119839e-05    1    1   11    7
 -0.0004820550830246491    1    1   11    8
 -0.001341886053533426    1    1   11    9
 -2.846203506689723e-06    1    1   11   10
 0.1533791403338374    1    1   11   11
 6.099990010906622e-05    1    1   12    1
 5.646526705409965e-06    1    1   12    2
 4.527921013354474e-05    1    1   12    3
 0.0007358320912085482    1    1   12    4
 5.58964846523102e-06    1    1   12    5
 9.337884396476773e-05    1    1   12    6
 -8.179512420559368e-05    1    1   12    7
 -2.895647841152579e-05    1    1   12    8
 -0.0004287148134418644    1    1   12    9
 0.0003889371422391187    1    1   12   10
 -0.00158307455788402    1    1   12   11
 0.1539874718122088    1    1   12   12
 0.0003272208289257766    1    1   13    1
 -4.282695492775768e-05    1    1   13    2
 -6.374598375548726e-06    1    1   13    3
 0.0001407416447253475    1    1   13    4
 -0.0002850432296883048    1    1   13    5
 5.413050038755897e-05    1    1   13    6
 0.0001797231949442974    1    1   13    7
 -0.0005938841495684334    1    1   13    8
 8.300922468044026e-05    1    1   13    9
 -0.001287329115353097    1    1   13   10
 -0.0002658088029716399    1    1   13   11
 -1.338639185034796e-06    1    1   13   12
 0.1537951300452808    1    1   13   13
 6.039850549040271e-06    1    1   14    1
 6.833708806088315e-05    1    1   14    2
 -0.0003270990700550841    1    1   14    3
 -5.783822182066356e-05    1    1   14    4
 6.037120208312891e-06    1    1   14    5
 0.0007258607900742266    1    1   14    6
 5.492988035181966e-05    1    1   14    7
 -0.0001297038512433346    1    1   14    8
 -0.0001762747777031776    1    1   14    9
 -9.985839763375706e-06    1    1   14   10
 0.0001166523705011112    1    1   14   11
 -0.002065640240213742    1    1   14   12
 0.0002416657832759756    1    1   14   13
 0.1538555019724894    1    1   14   14
 -0.002061393325677091    2    1    1    1
 0.1539642215236715    2    1    2    1
 0.0005208642284562724    2    1    2    2
 -1.271041730229253e-06    2    1    3    1
 -0.000142624519367765    2    1    3    2
 0.0008120919578453855    2    1    3    3
 0.0003635925734403571    2    1    4    1
 -0.006995326308389067    2    1    4    2
 -0.1094278912741282    2    1    4    3
 -0.0002202918215548529    2    1    4    4
 0.001572276741636592    2    1    5    1
 -0.107775201361862    2    1    5    2
 0.006889214115316287    2    1    5    3
 6.516033744909978e-05    2    1    5    4
 0.0004389135021048789    2    1    5    5
 4.35597355836273e-05    2    1    6    1
 0.0005245498687963222    2    1    6    2
 0.0006988611183914809    2    1    6    3
 0.1071005680617456    2    1    6    4
 0.02134867648023837    2    1    6    5
 0.0001240468633102627    2    1    6    6
 -0.000427573271924447    2    1    7    1
 -0.001014936323515214    2    1    7    2
 0.0002959591631274692    2    1    7    3
 0.02120643770978637    2    1    7    4
 -0.1063607188177536    2    1    7    5
 -7.113531782573269e-06    2    1    7    6
 -7.278481536268557e-05    2    1    7    7
 -0.000101028591330328    2    1    8    1
 -0.0009933246059239155    2    1    8    2
 4.46709662059782e-05    2    1    8    3
 -0.0001476267160446972    2    1    8    4
 0.000848969853761883    2    1    8    5
 -0.02246389153233307    2    1    8    6
 0.106869833067315    2    1    8    7
 -0.0001659782578478514    2    1    8    8
 -7.674662430368594e-05    2    1    9    1
 0.0001215249325384939    2    1    9    2
 0.0001438289629627125    2    1    9    3
 0.0009596557688178377    2    1    9    4
 0.0001798072413715761    2    1    9    5
 -0.1061461058790805    2    1    9    6
 -0.02232750698193178    2    1    9    7
 1.316633638216193e-05    2    1    9    8
 0.0001165192927793353    2    1    9    9
 0.0007398419489318304    2    1   10    1
 1.848575451264892e-05    2    1   10    2
 -6.156218318092987e-05    2    1   10    3
 8.888910506937159e-05    2    1   10    4
 -0.0006293243623511609    2    1   10    5
 0.0001765519594984881    2    1   10    6
 0.0008846091321598644    2    1   10    7
 -0.1073840510090951    2    1   10    8
 0.02137097585240279    2    1   10    9
 0.0003307037673211076    2    1   10   10
 1.38287577549235e-06    2    1   11    1
 -5.923571617093022e-05    2    1   11    2
 -8.106248149282588e-05    2    1   11    3
 0.0003019141867324658    2    1   11    4
 -4.79549525668158e-05    2    1   11    5
 0.0008845774072609525    2    1   11    6
 -0.0001514209767353603    2    1   11    7
 0.02111935548970667    2    1   11    8
 0.1061032551597991    2    1   11    9
 0.0001711739493925057    2    1   11   10
 -0.0005600884064486141    2    1   11   11
 5.646526705409965e-06    2    1   12    1
 3.411816961223189e-05    2    1   12    2
 -0.0004658759964397737    2    1   12    3
 1.398949242019387e-05    2    1   12    4
 5.441014459511362e-05    2    1   12    5
 0.000920730214448693    2    1   12    6
 0.0001767920501586319    2    1   12    7
 -0.0004065541844563807    2    1   12    8
 -0.0006890606615842249    2    1   12    9
 -0.009389271799734148    2    1   12   10
 0.1083399339831484    2    1   12   11
 -0.00229572441018959    2    1   12   12
 -4.282695492776462e-05    2    1   13    1
 0.0005450987852465457    2    1   13    2
 -0.0001008487197323611    2    1   13    3
 6.037725684662244e-05    2    1   13    4
 -5.871644035924245e-05    2    1   13    5
 0.0001109735905169325    2    1   13    6
 8.368220106190916e-05    2    1   13    7
 0.0008444812265100445    2    1   13    8
 -0.0003979901799824664    2    1   13    9
 0.1085489364067022    2    1   13   10
 0.009343406992855236    2    1   13   11
 0.0001337535798316501    2    1   13   12
 0.0009734077682398631    2    1   13   13
 6.833708806087621e-05    2    1   14    1
 6.909160580549981e-06    2    1   14    2
 3.236599940031545e-05    2    1   14    3
 0.0006933302028494341    2    1   14    4
 -2.751864444096482e-05    2    1   14    5
 5.16072410605313e-05    2    1   14    6
 -6.125157599023295e-05    2    1   14    7
 -0.0001115050457784605    2    1   14    8
 -0.0008770398501698222    2    1   14    9
 0.0002872432076774685    2    1   14   10
 -0.0009200529122702244    2    1   14   11
 0.1538151819632834    2    1   14   12
 0.00335078808209581    2    1   14   13
 0.002059713657023524    2    1   14   14
 0.1539642215236715    2    2    1    1
 0.0005208642284562671    2    2    2    1
 0.2299664676577365    2    2    2    2
 -0.0001426245193677667    2    2    3    1
 0.0001145064842100543    2    2    3    2
 0.07787875006299069    2    2    3    3
 -0.006995326308389064    2    2    4    1
 0.0001313859519852002    2    2    4    2
 -0.001300620145502612    2    2    4    3
 0.1549354902567489    2    2    4    4
 -0.107775201361862    2    2    5    1
 -0.001395695391101676    2    2    5    2
 5.310813710689795e-05    2    2    5    3
 0.0001543925645696971    2    2    5    4
 0.1528028436544515    2    2    5    5
 0.0005245498687963257    2    2    6    1
 -0.01974999786585865    2    2    6    2
 -0.07489630930500095    2    2    6    3
 0.0009494449417377024    2    2    6    4
 0.0001626402270603526    2    2    6    5
 0.1535669493762626    2    2    6    6
 -0.001014936323515216    2    2    7    1
 0.07314855700542904    2    2    7    2
 -0.01981627952703287    2    2    7    3
 2.219342125273863e-05    2    2    7    4
 -0.00116460836179501    2    2    7    5
 -0.0002499604948365715    2    2    7    6
 0.154198497777095    2    2    7    7
 -0.000993324605923912    2    2    8    1
 -0.0006335879172838926    2    2    8    2
 0.000107916623484073    2    2    8    3
 -0.00085313780956826    2    2    8    4
 -0.07638269416448641    2    2    8    5
 -0.0003255277923771942    2    2    8    6
 0.0008421641227130041    2    2    8    7
 0.1549018476090301    2    2    8    8
 0.0001215249325384844    2    2    9    1
 -0.000246296393787592    2    2    9    2
 -0.0004500117129928646    2    2    9    3
 -0.07665140186001533    2    2    9    4
 0.0006406718943646052    2    2    9    5
 -0.001055419748076733    2    2    9    6
 -0.0003088511638435322    2    2    9    7
 -0.000312997528429438    2    2    9    8
 0.1528841720420856    2    2    9    9
 1.848575451265239e-05    2    2   10    1
 0.001313920974393392    2    2   10    2
 -7.730200814410823e-05    2    2   10    3
 0.0002387320647322631    2    2   10    4
 -0.0004117424714826044    2    2   10    5
 0.0008720468827642797    2    2   10    6
 -0.07699688677809076    2    2   10    7
 -0.001060688481268949    2    2   10    8
 0.0002057260741815357    2    2   10    9
 0.1544099205351025    2    2   10   10
 -5.923571617093022e-05    2    2   11    1
 -3.865170379025156e-06    2    2   11    2
 -0.0002274817619861711    2    2   11    3
 0.0005114289369450671    2    2   11    4
 0.0002261395960389359    2    2   11    5
 -0.07593790713464534    2    2   11    6
 -0.0006561776581935099    2    2   11    7
 -6.617539647977167e-05    2    2   11    8
 0.0008125242915269803    2    2   11    9
 3.516046512317197e-05    2    2   11   10
 0.1533998260843409    2    2   11   11
 3.411816961222842e-05    2    2   12    1
 -2.608907993114154e-05    2    2   12    2
 -1.131071780898288e-05    2    2   12    3
 0.000942998674764238    2    2   12    4
 -3.878503027392047e-05    2    2   12    5
 0.0003548326227116698    2    2   12    6
 -0.000168001740773578    2    2   12    7
 0.02132497267711167    2    2   12    8
 0.07261728527638615    2    2   12    9
 0.0002852741614709844    2    2   12   10
 -0.0003828160391926498    2    2   12   11
 0.2307128050105934    2    2   12   12
 0.0005450987852465457    2    2   13    1
 -5.12744224179934e-06    2    2   13    2
 -4.012682762024461e-05    2    2   13    3
 0.0001428363086465011    2    2   13    4
 -0.0006584939651476632    2    2   13    5
 0.0001771141854291503    2    2   13    6
 0.0005012006726058688    2    2   13    7
 -0.07401902773429456    2    2   13    8
 0.02141128954515733    2    2   13    9
 0.00167316599238174    2    2   13   10
 0.0001844096244073517    2    2   13   11
 0.003348058561294793    2    2   13   12
 0.07698227978174518    2    2   13   13
 6.909160580548246e-06    2    2   14    1
 6.737616131167849e-05    2    2   14    2
 -0.0004369635923409578    2    2   14    3
 -4.389400988045328e-06    2    2   14    4
 3.257893068534228e-05    2    2   14    5
 0.001205140275877778    2    2   14    6
 0.0002089842677310523    2    2   14    7
 -0.0002300175343403973    2    2   14    8
 -0.000235971183065801    2    2   14    9
 -0.007029496493381766    2    2   14   10
 0.1081252904788665    2    2   14   11
 0.002298453144837904    2    2   14   12
 0.0002335804076209376    2    2   14   13
 0.1538306186281488    2    2   14   14
 -0.0002878543683840322    3    1    1    1
 -1.271041730227518e-06    3    1    2    1
 -0.0001426245193677633    3    1    2    2
 0.1538058500467907    3    1    3    1
 0.0008120919578453942    3    1    3    2
 0.0003231340229051458    3    1    3    3
 0.001308382129385589    3    1    4    1
 -0.1094278912741282    3    1    4    2
 0.006998171489720258    3    1    4    3
 0.0001557295734425541    3    1    4    4
 -0.0002285002421906807    3    1    5    1
 0.006889214115316285    3    1    5    2
 0.1077163517239178    3    1    5    3
 5.526352428260675e-05    3    1    5    4
 -0.0001202248463154584    3    1    5    5
 -0.0005979492089684801    3    1    6    1
 0.0006988611183914792    3    1    6    2
 -7.055886482657328e-05    3    1    6    3
 -0.02134475338090148    3    1    6    4
 0.1070506386545615    3    1    6    5
 -2.909216028919651e-05    3    1    6    6
 -9.175502749570429e-05    3    1    7    1
 0.0002959591631274648    3    1    7    2
 0.000388528907726518    3    1    7    3
 0.106323218887761    3    1    7    4
 0.02119615444985976    3    1    7    5
 6.883320181454242e-05    3    1    7    6
 3.588859769605539e-05    3    1    7    7
 5.193154750841172e-05    3    1    8    1
 4.467096620597993e-05    3    1    8    2
 -0.0009066753298907666    3    1    8    3
 -0.0005802206238777023    3    1    8    4
 -3.406677156423841e-05    3    1    8    5
 0.1067801156428233    3    1    8    6
 0.02245937486587617    3    1    8    7
 3.444586874603098e-05    3    1    8    8
 -0.0001828903269610067    3    1    9    1
 0.0001438289629627082    3    1    9    2
 2.117878483495587e-05    3    1    9    3
 -5.744388893310151e-06    3    1    9    4
 0.0004590925469250447    3    1    9    5
 -0.0223067184113804    3    1    9    6
 0.1061270276095951    3    1    9    7
 0.0001357646276298986    3    1    9    8
 -4.180012556796427e-05    3    1    9    9
 -0.0001250180135389713    3    1   10    1
 -6.156218318092814e-05    3    1   10    2
 -0.0001467734216500025    3    1   10    3
 -0.0008825864694337569    3    1   10    4
 -7.224119788637288e-05    3    1   10    5
 0.0004745105804314816    3    1   10    6
 -6.136780453465211e-06    3    1   10    7
 0.02135977389988244    3    1   10    8
 0.1073283669324882    3    1   10    9
 -0.0002207225192090226    3    1   10   10
 -0.0002844156873090076    3    1   11    1
 -8.106248149282935e-05    3    1   11    2
 4.474475668547057e-05    3    1   11    3
 3.984691299092902e-06    3    1   11    4
 -0.0002283766300003864    3    1   11    5
 -2.108387400340597e-05    3    1   11    6
 -0.0004996935880808885    3    1   11    7
 0.1060485071682307    3    1   11    8
 -0.02110644417320493    3    1   11    9
 0.0002973236178578868    3    1   11   10
 0.0001914439185690579    3    1   11   11
 4.527921013354821e-05    3    1   12    1
 -0.000465875996439772    3    1   12    2
 0.0001036159652490123    3    1   12    3
 -5.60945767133867e-05    3    1   12    4
 8.885543513587014e-05    3    1   12    5
 -0.0001343670898869692    3    1   12    6
 0.0006448873121324564    3    1   12    7
 -0.0004784425519620324    3    1   12    8
 0.0001181447102308721    3    1   12    9
 -0.1086207127077141    3    1   12   10
 -0.009347861254303196    3    1   12   11
 0.0001009150425554575    3    1   12   12
 -6.374598375546991e-06    3    1   13    1
 -0.0001008487197323646    3    1   13    2
 0.0001886557787999631    3    1   13    3
 0.0001296034406357352    3    1   13    4
 4.281241798357672e-05    3    1   13    5
 -0.0005329829092609682    3    1   13    6
 8.291987848573282e-05    3    1   13    7
 -0.0001387823970733729    3    1   13    8
 -0.0003481484849210004    3    1   13    9
 -0.009367577800911506    3    1   13   10
 0.108107915989351    3    1   13   11
 0.001839253277007288    3    1   13   12
 -0.0002811679092357428    3    1   13   13
 -0.0003270990700550841    3    1   14    1
 3.236599940030678e-05    3    1   14    2
 8.053520644767803e-06    3    1   14    3
 -0.000129310491655165    3    1   14    4
 0.0001300564091217546    3    1   14    5
 -2.660765835536295e-05    3    1   14    6
 -0.0001521769137755131    3    1   14    7
 0.0009622404246055274    3    1   14    8
 -0.0001339800064929448    3    1   14    9
 0.0001060158516350898    3    1   14   10
 -7.318322142565352e-05    3    1   14   11
 0.003344244339865509    3    1   14   12
 -0.1538308043677327    3    1   14   13
 0.000281929424454961    3    1   14   14
 -1.271041730227518e-06    3    2    1    1
 -0.0001426245193677615    3    2    2    1
 0.0001145064842100561    3    2    2    2
 0.0008120919578453855    3    2    3    1
 0.07787875006299068    3    2    3    2
 -0.0001167703475849595    3    2    3    3
 -0.1094278912741282    3    2    4    1
 -0.001300620145502605    3    2    4    2
 -9.20823715790664e-05    3    2    4    3
 -0.0001600666712577685    3    2    4    4
 0.006889214115316285    3    2    5    1
 5.310813710689751e-05    3    2    5    2
 0.0009685407034113408    3    2    5    3
 0.0003640531658221915    3    2    5    4
 0.000159052918148958    3    2    5    5
 0.0006988611183914827    3    2    6    1
 -0.07489630930500094    3    2    6    2
 0.01992804751077037    3    2    6    3
 -0.0001062499341014204    3    2    6    4
 0.001038710549697968    3    2    6    5
 -5.505911283360324e-05    3    2    6    6
 0.0002959591631274657    3    2    7    1
 -0.01981627952703287    3    2    7    2
 -0.07445279841869024    3    2    7    3
 0.0008754704735226514    3    2    7    4
 0.0002016547466394509    3    2    7    5
 0.0001117333750479737    3    2    7    6
 5.621043360956243e-05    3    2    7    7
 4.467096620597646e-05    3    2    8    1
 0.0001079166234840626    3    2    8    2
 0.0001940082993730583    3    2    8    3
 0.07764357187975872    3    2    8    4
 -0.0008666759809097223    3    2    8    5
 0.0008754087602498122    3    2    8    6
 0.0002113129571832085    3    2    8    7
 -0.0001956579435454277    3    2    8    8
 0.0001438289629627177    3    2    9    1
 -0.0004500117129928758    3    2    9    2
 -1.157199100430481e-06    3    2    9    3
 -0.0008634922149404903    3    2    9    4
 -0.07710254969862076    3    2    9    5
 -0.0002185126974087893    3    2    9    6
 0.0009428770727400704    3    2    9    7
 -0.0004852927605971391    3    2    9    8
 0.0001983790656603186    3    2    9    9
 -6.156218318093334e-05    3    2   10    1
 -7.730200814410476e-05    3    2   10    2
 0.000531570462365575    3    2   10    3
 0.0003034029403783077    3    2   10    4
 8.147776047216868e-05    3    2   10    5
 -0.07780115244391649    3    2   10    6
 -0.0009010501758562293    3    2   10    7
 0.0002891317935055301    3    2   10    8
 0.0010525417653437    3    2   10    9
 5.549167025549473e-05    3    2   10   10
 -8.106248149282848e-05    3    2   11    1
 -0.0002274817619861693    3    2   11    2
 -1.734988887935017e-05    3    2   11    3
 -7.468756224858399e-05    3    2   11    4
 0.0002395918870915346    3    2   11    5
 -0.0008939383813739562    3    2   11    6
 0.07704172164587039    3    2   11    7
 0.0007128854233422579    3    2   11    8
 -3.829298452857595e-05    3    2   11    9
 4.9978998989628e-05    3    2   11   10
 -5.150853906314863e-05    3    2   11   11
 -0.000465875996439772    3    2   12    1
 -1.131071780897767e-05    3    2   12    2
 3.826065442555197e-05    3    2   12    3
 -6.609042426783049e-05    3    2   12    4
 9.3214902313986e-05    3    2   12    5
 -3.259810946207135e-05    3    2   12    6
 -0.0002112849256330979    3    2   12    7
 0.07457712837499944    3    2   12    8
 -0.02153611629439159    3    2   12    9
 -8.200738902022775e-06    3    2   12   10
 3.794394813457034e-05    3    2   12   11
 0.003344582161443874    3    2   12   12
 -0.0001008487197323646    3    2   13    1
 -4.012682762024287e-05    3    2   13    2
 -7.597100208847456e-05    3    2   13    3
 -0.0004431639070901876    3    2   13    4
 3.682211092084862e-06    3    2   13    5
 0.0002584049347266974    3    2   13    6
 -3.800150851273991e-05    3    2   13    7
 0.02155837728512772    3    2   13    8
 0.07437121631401494    3    2   13    9
 -0.0002487863476489729    3    2   13   10
 0.001457456544164779    3    2   13   11
 -0.07685178168557173    3    2   13   12
 -0.003349952206765454    3    2   13   13
 3.236599940031372e-05    3    2   14    1
 -0.0004369635923409578    3    2   14    2
 8.677523484553265e-05    3    2   14    3
 -3.872053380726131e-05    3    2   14    4
 4.967599722652868e-05    3    2   14    5
 -0.0001401171791946838    3    2   14    6
 0.0002919092331882638    3    2   14    7
 -4.790999813418691e-05    3    2   14    8
 -1.689395863665663e-05    3    2   14    9
 -0.1090578742435775    3    2   14   10
 -0.00697337108172123    3    2   14   11
 0.0002420377837102309    3    2   14   12
 -0.00181401428761907    3    2   14   13
 2.063129451628301e-06    3    2   14   14
 0.1538058500467907    3    3    1    1
 0.0008120919578453855    3    3    2    1
 0.07787875006299068    3    3    2    2
 0.0003231340229051353    3    3    3    1
 -0.0001167703475849508    3    3    3    2
 0.229871771902759    3    3    3    3
 0.006998171489720255    3    3    4    1
 -9.20823715790664e-05    3    3    4    2
 -0.0001355418750256243    3    3    4    3
 0.1541947324811123    3    3    4    4
 0.1077163517239178    3    3    5    1
 0.0009685407034113369    3    3    5    2
 0.0003621569006730823    3    3    5    3
 -0.0001547426463159832    3    3    5    4
 0.1536322568436645    3    3    5    5
 -7.055886482658195e-05    3    3    6    1
 0.01992804751077037    3    3    6    2
 0.07351801398581495    3    3    6    3
 -0.0001368461932179689    3    3    6    4
 0.0001453276695302214    3    3    6    5
 0.1547411949783774    3    3    6    6
 0.0003885289077265172    3    3    7    1
 -0.07445279841869024    3    3    7    2
 0.01962959529781171    3    3    7    3
 0.000292464467057797    3    3    7    4
 0.0001876411541837906    3    3    7    5
 0.0002509331163037367    3    3    7    6
 0.153042391170752    3    3    7    7
 -0.0009066753298907736    3    3    8    1
 0.000194008299373067    3    3    8    2
 8.393212459810624e-05    3    3    8    3
 0.0006406561717971805    3    3    8    4
 0.07683727840647048    3    3    8    5
 0.0002436637742853805    3    3    8    6
 9.907897221594648e-05    3    3    8    7
 0.1534012666790486    3    3    8    8
 2.117878483495067e-05    3    3    9    1
 -1.157199100427012e-06    3    3    9    2
 -0.0001366001275315857    3    3    9    3
 0.07612315692505123    3    3    9    4
 -0.0008451460229880264    3    3    9    5
 0.0001027773089765345    3    3    9    6
 0.0002568530916299007    3    3    9    7
 0.0003137791889782091    3    3    9    8
 0.1543689642280733    3    3    9    9
 -0.0001467734216500042    3    3   10    1
 0.0005315704623655784    3    3   10    2
 -0.0002292440218363886    3    3   10    3
 6.196634646943658e-05    3    3   10    4
 -7.394478057022938e-05    3    3   10    5
 -0.0006622192253573078    3    3   10    6
 0.07647714783889002    3    3   10    7
 0.0002481113555436662    3    3   10    8
 0.0001081645306311614    3    3   10    9
 0.1547021122714008    3    3   10   10
 4.474475668548011e-05    3    3   11    1
 -1.734988887935017e-05    3    3   11    2
 -0.0005967847611147402    3    3   11    3
 -4.551583039600097e-05    3    3   11    4
 4.470164906866672e-05    3    3   11    5
 0.07638229480453085    3    3   11    6
 0.0008609704345016469    3    3   11    7
 0.0003720147548021534    3    3   11    8
 0.0001737121904013992    3    3   11    9
 -3.401607936909506e-05    3    3   11   10
 0.1530283969757114    3    3   11   11
 0.0001036159652490053    3    3   12    1
 3.826065442555024e-05    3    3   12    2
 9.927597093487006e-05    3    3   12    3
 0.0008935741417517296    3    3   12    4
 8.036195778474619e-05    3    3   12    5
 5.928127749324844e-05    3    3   12    6
 -9.062988677011399e-05    3    3   12    7
 -0.02146039596511298    3    3   12    8
 -0.07390854131510671    3    3   12    9
 -0.0002828846671501569    3    3   12   10
 0.0007930584645096748    3    3   12   11
 0.07706931475668655    3    3   12   12
 0.0001886557787999631    3    3   13    1
 -7.597100208847803e-05    3    3   13    2
 2.253172878585383e-05    3    3   13    3
 0.0002026478000334946    3    3   13    4
 -0.000165797345857368    3    3   13    5
 2.848919947648007e-05    3    3   13    6
 8.634145116435954e-05    3    3   13    7
 0.07265498280750268    3    3   13    8
 -0.02125564557849909    3    3   13    9
 -0.000234424910106338    3    3   13   10
 0.0002396610893681513    3    3   13   11
 -0.0033432697113422    3    3   13   12
 0.2307456301242971    3    3   13   13
 8.053520644764334e-06    3    3   14    1
 8.677523484553439e-05    3    3   14    2
 -0.0002976931813472462    3    3   14    3
 -0.000104800140378912    3    3   14    4
 -1.886259568640225e-05    3    3   14    5
 0.0006876794994839629    3    3   14    6
 -6.969793039134174e-05    3    3   14    7
 -0.0002225367355996027    3    3   14    8
 -0.0004191147690389332    3    3   14    9
 0.007028038950857362    3    3   14   10
 -0.1080784417625256    3    3   14   11
 -0.000967954616038132    3    3   14   12
 -0.000389919816639819    3    3   14   13
 0.1539520574783384    3    3   14   14
 -1.189471309498771e-05    4    1    1    1
 0.0003635925734403536    4    1    2    1
 -0.006995326308389071    4    1    2    2
 0.001308382129385589    4    1    3    1
 -0.1094278912741282    4    1    3    2
 0.006998171489720238    4    1    3    3
 0.1544119897909676    4    1    4    1
 -0.0002202918215548355    4    1    4    2
 0.0001557295734425576    4    1    4    3
 0.0002136282830451017    4    1    4    4
 -1.26971360140532e-06    4    1    5    1
 6.516033744910672e-05    4    1    5    2
 5.526352428260502e-05    4    1    5    3
 -0.000592558374536519    4    1    5    4
 -0.0002067037785302404    4    1    5    5
 -0.001431230192727805    4    1    6    1
 0.1071005680617456    4    1    6    2
 -0.02134475338090147    4    1    6    3
 -0.00012402364448506    4    1    6    4
 0.0002571840340961726    4    1    6    5
 0.0001509924608327877    4    1    6    6
 -0.0004803390322692322    4    1    7    1
 0.02120643770978638    4    1    7    2
 0.106323218887761    4    1    7    3
 0.0004706530478742702    4    1    7    4
 1.642748579345826e-05    4    1    7    5
 -0.0001858603252166656    4    1    7    6
 -0.0001515322665951719    4    1    7    7
 -9.197217613142808e-05    4    1    8    1
 -0.0001476267160446937    4    1    8    2
 -0.0005802206238776988    4    1    8    3
 -0.1090973188459519    4    1    8    4
 0.008100242510764775    4    1    8    5
 0.000465412256974513    4    1    8    6
 0.0001272284806962849    4    1    8    7
 0.0002282049381337366    4    1    8    8
 -0.0003068067354113435    4    1    9    1
 0.0009596557688178377    4    1    9    2
 -5.744388893313621e-06    4    1    9    3
 0.008078427878795248    4    1    9    4
 0.1082217908653441    4    1    9    5
 -9.66895227848992e-05    4    1    9    6
 0.0003456749123481799    4    1    9    7
 0.0007634870148545379    4    1    9    8
 -0.0002330143796638547    4    1    9    9
 8.860050440328421e-05    4    1   10    1
 8.888910506935424e-05    4    1   10    2
 -0.0008825864694337535    4    1   10    3
 -0.0007527675400713606    4    1   10    4
 -0.000168294118360039    4    1   10    5
 0.1093131152082427    4    1   10    6
 0.008163070705860781    4    1   10    7
 -0.0001233736081204216    4    1   10    8
 0.0002198759286272979    4    1   10    9
 -4.97858612674637e-05    4    1   10   10
 0.0001291644943463037    4    1   11    1
 0.0003019141867324632    4    1   11    2
 3.984691299100708e-06    4    1   11    3
 0.0001470956460162039    4    1   11    4
 -0.0006385089800036293    4    1   11    5
 0.008097975289487235    4    1   11    6
 -0.1081375991018727    4    1   11    7
 0.0007232774450025691    4    1   11    8
 -0.0002131132353291613    4    1   11    9
 1.528611189634266e-06    4    1   11   10
 3.923443977259418e-05    4    1   11   11
 0.0007358320912085482    4    1   12    1
 1.398949242019734e-05    4    1   12    2
 -5.609457671338497e-05    4    1   12    3