 &FCI NORB=  16,NELEC= 8,MS2=2,
  ORBSYM=1,1,1,1,1,1,1,1,1,1,1,1,1,1,1,1
  ISYM=1,
 &END
 0.5013139878781149    1    1    1    1
 -1.60288449180257e-15    1    1    2    1
 0.4961952752100149    1    1    2    2
 -1.89084858881472e-15    1    1    3    1
 -0.01474836939591349    1    1    3    2
 0.4981961137925285    1    1    3    3
 1.140580685454751e-15    1    1    4    1
 -0.01329646158040356    1    1    4    2
 0.003425991667533513    1    1    4    3
 0.5163534716924222    1    1    4    4
 1.455432996344541e-15    1    1    5    1
 0.002493887504876072    1    1    5    2
 0.01018716018184304    1    1    5    3
 -0.001853247533930379    1    1    5    4
 0.4954462540028703    1    1    5    5
 0.01553402712222618    1    1    6    1
 -1.242062008799394e-15    1    1    6    2
 2.383510055992133e-15    1    1    6    4
 0.5318384303815722    1    1    6    6
 0.001721511715787007    1    1    7    1
 -1.112608269404625e-15    1    1    7    3
 -5.838982245651454e-05    1    1    7    6
 0.5163262686539473    1    1    7    7
 -0.005720685583466509    1    1    8    1
 -1.183081410616182e-15    1    1    8    2
 0.000202111227700596    1    1    8    6
 -2.959716279311056e-05    1    1    8    7
 0.5061383997842651    1    1    8    8
 0.01179390450162516    1    1    9    1
 1.693984579345664e-15    1    1    9    3
 -1.529944790648607e-15    1    1    9    5
 0.000528945747990373    1    1    9    6
 -3.039288304686594e-05    1    1    9    7
 6.729536822713223e-05    1    1    9    8
 0.4964077417614549    1    1    9    9
 -0.003345842646322834    1    1   10    1
 -2.763522917448302e-15    1    1   10    3
 3.43009041309239e-15    1    1   10    5
 -0.0001668998824197723    1    1   10    6
 1.169300188959438e-05    1    1   10    7
 -4.205842458232964e-05    1    1   10    8
 -0.0001342594649079721    1    1   10    9
 0.4773131646471273    1    1   10   10
 -0.01504653226863346    1    1   11    1
 -2.164934898019055e-15    1    1   11    2
 -1.332267629550188e-15    1    1   11    3
 1.016547956922409e-15    1    1   11    5
 0.0004827532141735092    1    1   11    6
 -7.741651639884715e-05    1    1   11    7
 0.0002789774880787299    1    1   11    8
 0.0004172671840097301    1    1   11    9
 -0.0001622212555983979    1    1   11   10
 0.4719787765854933    1    1   11   11
 0.01292291496120081    1    1   12    2
 0.0058341393523497    1    1   12    3
 -0.01402908591383556    1    1   12    4
 -0.009394280867332868    1    1   12    5
 -2.501633882684429e-15    1    1   12    6
 -1.171914128239582e-15    1    1   12    7
 -1.245517903224191e-15    1    1   12    9
 1.481616478810066e-15    1    1   12   10
 1.1518563880486e-15    1    1   12   11
 0.5230317223975482    1    1   12   12
 -1.339206523454095e-15    1    1   13    1
 -0.01234115890530769    1    1   13    2
 -0.002346898511065863    1    1   13    3
 -0.003499738421416089    1    1   13    4
 0.004510388784779121    1    1   13    5
 0.0002893872285000603    1    1   13   12
 0.5064008779924416    1    1   13   13
 -1.052109788179934e-15    1    1   14    1
 0.007753179716455207    1    1   14    2
 -0.01036141180754023    1    1   14    3
 0.002433860652705091    1    1   14    4
 0.007281930533365364    1    1   14    5
 -4.146246605600534e-15    1    1   14   10
 0.001474469030510852    1    1   14   12
 0.0005968300710573089    1    1   14   13
 0.4911422351597974    1    1   14   14
 1.082467449009528e-15    1    1   15    1
 -0.01349101051877187    1    1   15    2
 -0.005875268047997415    1    1   15    3
 0.01135068695891142    1    1   15    4
 -0.004549107894695394    1    1   15    5
 -2.065757504290944e-15    1    1   15    9
 2.613794597428054e-15    1    1   15   10
 -2.386979502944087e-15    1    1   15   11
 1.030716128960427e-05    1    1   15   12
 -0.0008856925317373421    1    1   15   13
 -4.613569986071202e-05    1    1   15   14
 0.4732340497523777    1    1   15   15
 -0.001873609038135132    1    1   16    1
 -2.123301534595612e-15    1    1   16    5
 -0.01479740688942398    1    1   16    6
 0.001653004635116547    1    1   16    7
 -0.00602208316748986    1    1   16    8
 -0.01190435021905503    1    1   16    9
 0.003810470511722112    1    1   16   10
 -0.015447045863584    1    1   16   11
 1.285430095698814e-15    1    1   16   14
 -3.37924133120282e-15    1    1   16   15
 0.4986832303080249    1    1   16   16
 -1.540434446667405e-15    2    1    1    1
 0.496195275210015    2    1    2    1
 -2.470246229790973e-15    2    1    2    2
 -0.01474836939591349    2    1    3    1
 -1.033895191682177e-15    2    1    3    3
 -0.01329646158040355    2    1    4    1
 1.578598363138894e-15    2    1    4    2
 -1.533495552763497e-15    2    1    4    3
 -2.20873666578747e-15    2    1    4    4
 0.002493887504876065    2    1    5    1
 -1.137978600240785e-15    2    1    5    2
 -2.795506881536625e-15    2    1    5    4
 -1.214252223075141e-15    2    1    6    1
 0.131794953612999    2    1    6    2
 -0.1050085039278295    2    1    6    3
 -0.3684779170897376    2    1    6    4
 -0.07250574404333575    2    1    6    5
 0.2117353025028445    2    1    7    2
 -0.2893444068786811    2    1    7    3
 -0.0231747349386712    2    1    7    4
 0.02770294995293387    2    1    7    5
 3.155299372475939e-15    2    1    7    7
 -1.163999452380438e-15    2    1    8    1
 -0.04996404817243538    2    1    8    2
 0.1838415109864689    2    1    8    3
 0.05306417549286009    2    1    8    4
 0.09445747975655572    2    1    8    5
 -5.05465894834467e-15    2    1    8    6
 2.000136167801259e-15    2    1    8    8
 -0.1610942041313141    2    1    9    2
 0.05744459227502313    2    1    9    3
 -0.250782224623143    2    1    9    4
 0.0553014704024641    2    1    9    5
 1.151299887402254e-15    2    1    9    7
 -4.177302221578666e-15    2    1    9    8
 1.938666298604744e-15    2    1    9    9
 -0.2791498011955268    2    1   10    2
 0.009920124693815997    2    1   10    3
 -0.1730997083171357    2    1   10    4
 -0.01988224341946533    2    1   10    5
 -1.037822036425648e-15    2    1   10    6
 -4.962962549606709e-15    2    1   10    7
 -1.838698464318167e-15    2    1   10    8
 -1.603216528717893e-15    2    1   10    9
 -1.171233113749989e-15    2    1   10   10
 -2.192690473634684e-15    2    1   11    1
 0.221028549615853    2    1   11    2
 0.3141342521571229    2    1   11    3
 -0.09425109198438898    2    1   11    4
 -0.1308043182865894    2    1   11    5
 2.20570089970451e-15    2    1   11    7
 1.512678871051776e-15    2    1   11    8
 -3.910175135068972e-15    2    1   11    9
 5.123939467166494e-15    2    1   11   10
 -1.554312234475219e-15    2    1   11   11
 0.01292291496120083    2    1   12    1
 1.408595462493167e-15    2    1   12    3
 1.68962066560141e-15    2    1   12    4
 -2.119832087643658e-15    2    1   12    5
 0.3751045149691776    2    1   12    6
 -0.252496906384128    2    1   12    7
 0.1517055505038982    2    1   12    8
 0.06527510883458172    2    1   12    9
 -0.01032183954801398    2    1   12   10
 -0.06635498684464214    2    1   12   11
 1.247266179227324e-15    2    1   12   12
 -0.01234115890530771    2    1   13    1
 -1.582067810090848e-15    2    1   13    2
 -1.301042606982605e-15    2    1   13    3
 -1.647987302177967e-15    2    1   13    4
 -0.0391193086848479    2    1   13    6
 -0.154692161829691    2    1   13    7
 0.1320316477509879    2    1   13    8
 -0.2315082179004575    2    1   13    9
 -0.1424493609985162    2    1   13   10
 0.1535165003852465    2    1   13   11
 1.519617764955683e-15    2    1   13   13
 0.007753179716455179    2    1   14    1
 -1.816255479347717e-15    2    1   14    2
 1.229051582729568e-15    2    1   14    5
 0.1239162210364245    2    1   14    6
 0.1537155650451312    2    1   14    7
 0.03213796435315754    2    1   14    8
 0.1906201164881597    2    1   14    9
 0.2821966675220049    2    1   14   10
 -0.0738651310255712    2    1   14   11
 3.147547326942668e-15    2    1   14   14
 -0.01349101051877188    2    1   15    1
 -1.512678871051776e-15    2    1   15    2
 -2.331468351712829e-15    2    1   15    3
 1.741662369880714e-15    2    1   15    5
 -0.001472001997922478    2    1   15    6
 -0.04434829485581188    2    1   15    7
 0.04444484971884985    2    1   15    8
 0.1255708361367454    2    1   15    9
 0.1758105395755254    2    1   15   10
 0.4183411523552272    2    1   15   11
 2.477185123694881e-15    2    1   15   12
 -1.710437347313132e-15    2    1   15   14
 -3.635980405647388e-15    2    1   15   15
 -0.008585342240843036    2    1   16    2
 -0.03970512457339034    2    1   16    3
 0.05195359412495664    2    1   16    4
 0.01597617585585036    2    1   16    5
 1.489639574886459e-15    2    1   16    6
 -1.002670169114595e-15    2    1   16    8
 -1.111090386363145e-15    2    1   16   10
 -1.915134717478395e-15    2    1   16   11
 -0.2404922135738851    2    1   16   12
 -0.06365709568188145    2    1   16   13
 0.2678906117824078    2    1   16   14
 0.3335522115615813    2    1   16   15
 1.290634266126744e-15    2    1   16   16
 0.4961952752100149    2    2    1    1
 -2.470246229790973e-15    2    2    2    1
 0.9435517065276052    2    2    2    2
 -0.04024668254230691    2    2    3    2
 0.4670777326513311    2    2    3    3
 1.575128916186941e-15    2    2    4    1
 0.03261387533085305    2    2    4    2
 0.008114624047392327    2    2    4    3
 0.4722342862610654    2    2    4    4
 -1.141448047192739e-15    2    2    5    1
 -0.08357630307530417    2    2    5    2
 -0.04862318228136252    2    2    5    3
 0.06506482434281238    2    2    5    4
 0.07258201321990988    2    2    5    5
 0.131794953612999    2    2    6    1
 0.6074577198871723    2    2    6    6
 0.2117353025028445    2    2    7    1
 2.405194099441843e-15    2    2    7    2
 2.289834988289385e-15    2    2    7    3
 1.781452589610932e-15    2    2    7    4
 -0.009127096109708669    2    2    7    6
 0.4695005719069323    2    2    7    7
 -0.04996404817243538    2    2    8    1
 2.05391259555654e-15    2    2    8    2
 4.695462768600223e-15    2    2    8    4
 0.006427768269936155    2    2    8    6
 -0.2284920591093539    2    2    8    7
 0.1796150323779759    2    2    8    8
 -0.1610942041313141    2    2    9    1
 -1.710274716987259e-15    2    2    9    2
 -3.97240833976964e-15    2    2    9    3
 3.025168006723367e-15    2    2    9    5
 0.2312687315437634    2    2    9    6
 -0.000597207517654409    2    2    9    7
 0.003206703256841756    2    2    9    8
 0.4210987152628782    2    2    9    9
 -0.2791498011955268    2    2   10    1
 5.19679785315752e-15    2    2   10    3
 0.1358466899209209    2    2   10    6
 0.003347856177136557    2    2   10    7
 0.002596327094084393    2    2   10    8
 0.40838170344605    2    2   10    9
 0.4973151432460362    2    2   10   10
 0.2210285496158531    2    2   11    1
 -1.970645868709653e-15    2    2   11    2
 -2.664535259100376e-15    2    2   11    3
 1.207367539279858e-15    2    2   11    5
 -0.00122217896692216    2    2   11    6
 -0.1610219290233502    2    2   11    7
 0.1150577400224011    2    2   11    8
 -0.005461035841322422    2    2   11    9
 -0.01712747099762287    2    2   11   10
 0.824019222185164    2    2   11   11
 -0.07170599014393031    2    2   12    2
 0.09809316347582042    2    2   12    3
 -0.2642663511109489    2    2   12    4
 -0.01578553011905405    2    2   12    5
 1.008036969868398e-15    2    2   12    6
 -1.111740907666636e-15    2    2   12    7
 -3.812922200197022e-15    2    2   12    8
 1.055904495783633e-15    2    2   12   10
 1.082467449009528e-15    2    2   12   11
 0.5560567040525685    2    2   12   12
 -1.582067810090848e-15    2    2   13    1
 0.1443464711538221    2    2   13    2
 0.2182931751045684    2    2   13    3
 0.1815967530045351    2    2   13    4
 -0.0423010865344072    2    2   13    5
 -1.249055112811925e-15    2    2   13    6
 2.167320142798523e-15    2    2   13    7
 3.040102891649354e-15    2    2   13    8
 -4.108272424509229e-15    2    2   13    9
 3.185711243414158e-15    2    2   13   10
 0.06705795411489399    2    2   13   12
 0.2919115036598622    2    2   13   13
 -1.844011054963346e-15    2    2   14    1
 -0.1713794617323288    2    2   14    2
 -0.1355208711199279    2    2   14    3
 -0.254329291243898    2    2   14    4
 0.03400806849865511    2    2   14    5
 -2.123084694161115e-15    2    2   14    7
 -3.364496181657017e-15    2    2   14    8
 3.71109189927811e-15    2    2   14    9
 -1.092875789865388e-15    2    2   14   11
 -0.07306887501521189    2    2   14   12
 -0.2778505567372908    2    2   14   13
 0.4761367171408503    2    2   14   14
 -1.498801083243961e-15    2    2   15    1
 0.02886487614194186    2    2   15    2
 0.3181497200474933    2    2   15    3
 -0.1782210866943193    2    2   15    4
 -0.09457862812507081    2    2   15    5
 -3.881660617932603e-15    2    2   15    9
 3.2461013044216e-15    2    2   15   10
 -2.609024107869118e-15    2    2   15   11
 -0.1728381707363921    2    2   15   12
 0.006441481286071943    2    2   15   13
 0.2663340546456741    2    2   15   14
 0.7204493364868112    2    2   15   15
 -0.008585342240842994    2    2   16    1
 -2.081668171172169e-15    2    2   16    2
 -2.248201624865942e-15    2    2   16    3
 2.407796184655808e-15    2    2   16    5
 -0.1218661883274606    2    2   16    6
 0.2034736124642485    2    2   16    7
 -0.04169525961297212    2    2   16    8
 0.1713683028437907    2    2   16    9
 0.2861158917903968    2    2   16   10
 0.2379536864887336    2    2   16   11
 1.968911145233676e-15    2    2   16   14
 -1.831867990631508e-15    2    2   16   15
 0.5047983199238286    2    2   16   16
 -1.89084858881472e-15    3    1    1    1
 -0.01474836939591349    3    1    2    1
 0.4981961137925285    3    1    3    1
 -1.068589661201713e-15    3    1    3    2
 -1.637578961322106e-15    3    1    3    3
 0.003425991667533511    3    1    4    1
 -1.530026105811544e-15    3    1    4    2
 3.530162273612802e-15    3    1    4    4
 0.01018716018184302    3    1    5    1
 9.495876307497042e-15    3    1    5    3
 -1.029992063861229e-15    3    1    5    4
 -1.131386651032074e-14    3    1    5    5
 -0.1050085039278295    3    1    6    2
 -0.2424225971039567    3    1    6    3
 0.1212280413584987    3    1    6    4
 -0.07385933734172472    3    1    6    5
 6.143571047533382e-15    3    1    6    6
 -1.111524067232139e-15    3    1    7    1
 -0.2893444068786811    3    1    7    2
 0.3481562441733277    3    1    7    3
 0.004926922110309864    3    1    7    4
 -0.04330746770258882    3    1    7    5
 -1.539441724053223e-15    3    1    7    6
 1.431065552517929e-15    3    1    7    7
 0.1838415109864689    3    1    8    2
 -0.1250578034993549    3    1    8    3
 0.06990289053986386    3    1    8    4
 0.08199070453487389    3    1    8    5
 1.062640101780199e-15    3    1    8    6
 3.067858467264983e-15    3    1    8    7
 1.696993240374312e-15    3    1    8    8
 1.673154345106787e-15    3    1    9    1
 0.05744459227502312    3    1    9    2
 0.2476736439130632    3    1    9    3
 -0.05322514155965374    3    1    9    4
 0.3436500165875793    3    1    9    5
 -2.548420065163375e-15    3    1    9    6
 -5.09521996805689e-15    3    1    9    7
 2.519153912165437e-15    3    1    9    8
 3.000984607274325e-15    3    1    9    9
 -2.721672713590362e-15    3    1   10    1
 0.009920124693815995    3    1   10    2
 0.1367430023110389    3    1   10    3
 0.008641619538132868    3    1   10    4
 -0.2689536386722242    3    1   10    5
 2.391937186784366e-15    3    1   10    6
 6.907316515633588e-15    3    1   10    7
 -2.519252167987318e-15    3    1   10    8
 2.614283758955093e-15    3    1   10    9
 -5.816626070772116e-15    3    1   10   10
 -1.346145417358002e-15    3    1   11    1
 0.3141342521571229    3    1   11    2
 0.06927336836273099    3    1   11    3
 -0.06247783685708104    3    1   11    4
 -0.1065796173619236    3    1   11    5
 3.60215329786584e-15    3    1   11    7
 -2.235082778578867e-15    3    1   11    9
 3.81834321105945e-15    3    1   11   10
 -1.554312234475219e-15    3    1   11   11
 0.005834139352349717    3    1   12    1
 1.408595462493167e-15    3    1   12    2
 -2.153659195425206e-15    3    1   12    5
 -0.01542063119939283    3    1   12    6
 0.3056824740664111    3    1   12    7
 -0.0978216133701435    3    1   12    8
 -0.07959078922112574    3    1   12    9
 -0.05999153559035598    3    1   12   10
 -0.2004272081398407    3    1   12   11
 4.168540512772267e-15    3    1   12   12
 -0.002346898511065829    3    1   13    1
 -1.304512053934559e-15    3    1   13    2
 -3.382710778154774e-15    3    1   13    3
 -1.683549133435491e-15    3    1   13    4
 4.169407874510256e-15    3    1   13    5
 0.2265927559280679    3    1   13    6
 0.1984303667874404    3    1   13    7
 -0.09441380041504926    3    1   13    8
 -0.3876970025009414    3    1   13    9
 0.08896720947064951    3    1   13   10
 -0.004886176553995085    3    1   13   11
 -1.719110964693016e-15    3    1   13   12
 -0.01036141180754024    3    1   14    1
 -5.306519113013053e-15    3    1   14    3
 -1.986475220427941e-15    3    1   14    4
 4.436988970679678e-15    3    1   14    5
 0.01017329410579963    3    1   14    6
 -0.2149540218156419    3    1   14    7
 0.1777774926064545    3    1   14    8
 -0.2090129101328723    3    1   14    9
 0.216257796230498    3    1   14   10
 0.055686103349134    3    1   14   11
 1.525472456687105e-15    3    1   14   14
 -0.005875268047997387    3    1   15    1
 -2.345346139520643e-15    3    1   15    2
 1.540434446667405e-15    3    1   15    3
 2.008809785181143e-15    3    1   15    4
 -3.604755383079805e-15    3    1   15    5
 0.1491651762834058    3    1   15    6
 0.03466684279184908    3    1   15    7
 0.0125214242825651    3    1   15    8
 -0.02659378528067838    3    1   15    9
 -0.1969751799785973    3    1   15   10
 0.3092316209993794    3    1   15   11
 -1.144917494144693e-15    3    1   15   12
 -3.788636071533347e-15    3    1   15   13
 -2.942091015256665e-15    3    1   15   15
 -0.03970512457339034    3    1   16    2
 0.004817946796298322    3    1   16    3
 0.002751921358518985    3    1   16    4
 0.003946456886962327    3    1   16    5
 -1.379159373510186e-15    3    1   16    6
 -2.207435623180487e-15    3    1   16    7
 -1.275021754842953e-15    3    1   16    8
 -4.888437202775486e-15    3    1   16    9
 5.720684342902516e-15    3    1   16   10
 -1.068589661201713e-15    3    1   16   11
 0.2354774259200126    3    1   16   12
 0.3039451448495668    3    1   16   13
 -0.09317496176954855    3    1   16   14
 0.3019042035580194    3    1   16   15
 1.984523656517467e-15    3    1   16   16
 -0.01474836939591349    3    2    1    1
 -0.04024668254230697    3    2    2    2
 -1.089406342913435e-15    3    2    3    1
 0.467077732651331    3    2    3    2
 -0.1149871255798926    3    2    3    3
 -1.535230276239474e-15    3    2    4    1
 0.008114624047392334    3    2    4    2
 -0.04916502686516715    3    2    4    3
 -0.04041818268033344    3    2    4    4
 -0.04862318228136251    3    2    5    2
 0.03116620811667449    3    2    5    3
 0.007901899973126195    3    2    5    4
 0.1024789886705777    3    2    5    5
 -0.1050085039278295    3    2    6    1
 -1.322292969563321e-15    3    2    6    3
 -3.324055440623308e-15    3    2    6    4
 -0.07142192264427234    3    2    6    6
 -0.2893444068786811    3    2    7    1
 2.289834988289385e-15    3    2    7    2
 -1.23035262533655e-15    3    2    7    5
 0.01323882431895621    3    2    7    6
 -0.5903108140347967    3    2    7    7
 0.1838415109864689    3    2    8    1
 -1.208234901017846e-15    3    2    8    4
 -0.01036757638846525    3    2    8    6
 0.2735147150505164    3    2    8    7
 -0.07827288435373944    3    2    8    8
 0.05744459227502312    3    2    9    1
 -3.973248596453316e-15    3    2    9    2
 4.374132349729831e-15    3    2    9    3
 -1.244904651370379e-15    3    2    9    4
 1.262316260634139e-15    3    2    9    5
 -0.1243119400901174    3    2    9    6
 0.0007122988361401977    3    2    9    7
 0.002243857322772818    3    2    9    8
 0.1559402367324267    3    2    9    9
 0.009920124693815997    3    2   10    1
 5.197665214895508e-15    3    2   10    2
 -2.766883944183007e-15    3    2   10    3
 -1.408270201841422e-15    3    2   10    4
 -1.080732725533551e-15    3    2   10    5
 0.007482006745056506    3    2   10    6
 -0.003375087083997851    3    2   10    7
 0.0009705600309618989    3    2   10    8
 -0.03854540858758516    3    2   10    9
 0.03536100580408641    3    2   10   10
 0.3141342521571229    3    2   11    1
 -2.692290834716005e-15    3    2   11    2
 -1.942890293094024e-15    3    2   11    3
 1.200428645375951e-15    3    2   11    5
 -0.00735278525625172    3    2   11    6
 0.1745564685800352    3    2   11    7
 -0.05576124411341573    3    2   11    8
 0.001306697895223929    3    2   11    9
 -0.002821205839110117    3    2   11   10
 0.5480719106103948    3    2   11   11
 1.394717674685353e-15    3    2   12    1
 0.09809316347582045    3    2   12    2
 -0.3601492148395624    3    2   12    3
 0.1040864977504839    3    2   12    4
 0.0549069999983544    3    2   12    5
 4.931059900681323e-15    3    2   12    6
 -1.861141449288617e-15    3    2   12    7
 1.31492039479042e-15    3    2   12    8
 3.766952028083637e-15    3    2   12    9
 -4.966079630852605e-15    3    2   12   10
 -0.2734718662859403    3    2   12   12
 -1.321859288694327e-15    3    2   13    1
 0.2182931751045684    3    2   13    2
 -0.253236524824772    3    2   13    3
 0.009311088014226256    3    2   13    4
 -0.07624079948219356    3    2   13    5
 1.790234627208065e-15    3    2   13    6
 -1.788174643080342e-15    3    2   13   10
 -1.193489751472043e-15    3    2   13   11
 -0.1541927223528934    3    2   13   12
 0.01482136578784556    3    2   13   13
 -0.1355208711199279    3    2   14    2
 0.2057706062273984    3    2   14    3
 0.03054993427346114    3    2   14    4
 -0.02985286588617759    3    2   14    5
 1.103229920612625e-15    3    2   14    7
 -2.411336782375331e-15    3    2   14    9
 4.302439481074227e-15    3    2   14   10
 0.1692176660843464    3    2   14   12
 0.1729767740537307    3    2   14   13
 -0.06324395348536449    3    2   14   14
 -2.345346139520643e-15    3    2   15    1
 0.3181497200474933    3    2   15    2
 0.1362545090039012    3    2   15    3
 -0.05789059944274966    3    2   15    4
 -0.08881996390916895    3    2   15    5
 3.387914948582704e-15    3    2   15    7
 -1.570954737822872e-15    3    2   15    9
 3.43388512069609e-15    3    2   15   10
 -2.470246229790973e-15    3    2   15   11
 -0.09647392487216298    3    2   15   12
 0.1141604865514647    3    2   15   13
 0.04352416471105568    3    2   15   14
 0.4150674561154145    3    2   15   15
 -0.03970512457339032    3    2   16    1
 -2.220446049250313e-15    3    2   16    2
 -2.019218126037003e-15    3    2   16    3
 1.115427195053087e-15    3    2   16    4
 0.1091862291093249    3    2   16    6
 -0.2786291447450273    3    2   16    7
 0.176654880003246    3    2   16    8
 -0.05683087254701347    3    2   16    9
 -0.01777256161049554    3    2   16   10
 0.3299220146463258    3    2   16   11
 -1.356553758213863e-15    3    2   16   12
 1.790234627208065e-15    3    2   16   15
 0.01538083728181368    3    2   16   16
 0.4981961137925285    3    3    1    1
 -1.054711873393899e-15    3    3    2    1
 0.467077732651331    3    3    2    2
 -1.540434446667405e-15    3    3    3    1
 -0.1149871255798926    3    3    3    2
 1.049312286638276    3    3    3    3
 -0.04916502686516715    3    3    4    2
 -0.1025288928228708    3    3    4    3
 0.05153629363590841    3    3    4    4
 9.495876307497042e-15    3    3    5    1
 0.03116620811667449    3    3    5    2
 0.06319625105355087    3    3    5    3
 -0.03350730889939829    3    3    5    4
 0.4410542760128146    3    3    5    5
 -0.2424225971039567    3    3    6    1
 -1.336712858457378e-15    3    3    6    2
 -6.283493690639741e-15    3    3    6    3
 2.945709540007335e-15    3    3    6    4
 -4.590132527543256e-15    3    3    6    5
 0.3218533922610779    3    3    6    6
 0.3481562441733277    3    3    7    1
 2.973749718693242e-15    3    3    7    3
 -2.401290971620895e-15    3    3    7    5
 -0.01343236833493805    3    3    7    6
 0.7473299572410864    3    3    7    7
 -0.1250578034993549    3    3    8    1
 1.073793831629644e-15    3    3    8    3
 -0.005630715885857438    3    3    8    6
 -0.3600407283899554    3    3    8    7
 0.2167498075085115    3    3    8    8
 0.2476736439130632    3    3    9    1
 4.381098348688051e-15    3    3    9    2
 8.828482107696434e-15    3    3    9    3
 -3.663105788750259e-15    3    3    9    5
 -0.3731956756851863    3    3    9    6
 -0.005452322694627536    3    3    9    7
 0.02158386689339243    3    3    9    8
 0.76748882142874    3    3    9    9
 0.136743002311039    3    3   10    1
 -2.767100784617504e-15    3    3   10    2
 -4.461058258908857e-15    3    3   10    3
 -2.073645075095776e-15    3    3   10    4
 1.146511271338246e-14    3    3   10    5
 -0.04408585260996666    3    3   10    6
 0.004685493449368437    3    3   10    7
 -0.006575151973222817    3    3   10    8
 -0.264695415982731    3    3   10    9
 0.3965065831141169    3    3   10   10
 0.06927336836273099    3    3   11    1
 -1.915134717478395e-15    3    3   11    2
 -1.110223024625157e-15    3    3   11    3
 -0.002074662447041852    3    3   11    6
 -0.2443176775963115    3    3   11    7
 0.1392877063813073    3    3   11    8
 -0.0006102632783162261    3    3   11    9
 0.007300745950265536    3    3   11   10
 0.5504093808271626    3    3   11   11
 -0.3601492148395624    3    3   12    2
 0.1520506093435099    3    3   12    3
 0.02152809422730622    3    3   12    4
 -0.01076086747549581    3    3   12    5
 -2.989416440085657e-15    3    3   12    6
 1.610257066575471e-15    3    3   12    7
 -1.118896642005041e-15    3    3   12    8
 -4.823608689124431e-15    3    3   12    9
 5.506229153184883e-15    3    3   12   10
 0.4073183513779932    3    3   12   12
 -3.434752482434078e-15    3    3   13    1
 -0.253236524824772    3    3   13    2
 -0.1135654088914577    3    3   13    3
 0.0865601594792289    3    3   13    4
 -0.3751137665479158    3    3   13    5
 2.838441287567051e-15    3    3   13    6
 1.535880797542966e-15    3    3   13    7
 -1.360023205165817e-15    3    3   13    8
 -6.912886604294732e-15    3    3   13    9
 4.21245070075793e-15    3    3   13   10
 0.3170522501018051    3    3   13   12
 0.6891328912776996    3    3   13   13
 -5.298712857371157e-15    3    3   14    1
 0.2057706062273984    3    3   14    2
 -0.2282258049014754    3    3   14    3
 0.04311935975071667    3    3   14    4
 -0.235658804756737    3    3   14    5
 4.289815302028349e-15    3    3   14    6
 1.295377650631369e-15    3    3   14    9
 -7.389230828776239e-15    3    3   14   10
 1.139713323716762e-15    3    3   14   11
 -0.2222345403944484    3    3   14   12
 0.03463956731283421    3    3   14   13
 0.3628484986996862    3    3   14   14
 1.540434446667405e-15    3    3   15    1
 0.1362545090039012    3    3   15    2
 -0.07031969540071691    3    3   15    3
 -0.003363478984106983    3    3   15    4
 0.007090805815337574    3    3   15    5
 -1.005380674545808e-15    3    3   15    6
 -1.464973975462414e-15    3    3   15    7
 -3.864394698335771e-15    3    3   15    9
 8.77054505410424e-15    3    3   15   10
 -1.77635683940025e-15    3    3   15   11
 0.05513540287908726    3    3   15   12
 0.2459327418705422    3    3   15   13
 -0.1091911080420016    3    3   15   14
 0.5317196697062946    3    3   15   15
 0.004817946796298329    3    3   16    1
 -1.949829186997931e-15    3    3   16    2
 -5.464378949326942e-15    3    3   16    5
 0.2253128759556935    3    3   16    6
 0.3388712932622522    3    3   16    7
 -0.1361288716532597    3    3   16    8
 -0.2402245371564915    3    3   16    9
 -0.1453192302012431    3    3   16   10
 0.07332490343921029    3    3   16   11
 1.630640067418199e-15    3    3   16   12
 2.331468351712829e-15    3    3   16   13
 2.473715676742927e-15    3    3   16   14
 -3.247402347028583e-15    3    3   16   15
 0.5014659438267782    3    3   16   16
 1.112825109839122e-15    4    1    1    1
 -0.01329646158040356    4    1    2    1
 1.576863639662918e-15    4    1    2    2
 0.003425991667533511    4    1    3    1
 -1.533495552763497e-15    4    1    3    2
 0.5163534716924222    4    1    4    1
 -2.253839476162867e-15    4    1    4    2
 3.533631720564756e-15    4    1    4    3
 6.468350161048519e-15    4    1    4    4
 -0.001853247533930407    4    1    5    1
 -2.805915222392485e-15    4    1    5    2
 -1.033027829944189e-15    4    1    5    3
 -1.194064378623461e-14    4    1    5    4
 -1.423123771604473e-15    4    1    5    5
 2.411143658863357e-15    4    1    6    1
 -0.3684779170897377    4    1    6    2
 0.1212280413584987    4    1    6    3
 0.3590479438921763    4    1    6    4
 0.09541261728394498    4    1    6    5
 3.778274846885177e-15    4    1    6    6
 -0.02317473493867121    4    1    7    2
 0.004926922110309862    4    1    7    3
 -0.2995000629679035    4    1    7    4
 0.2057405103310633    4    1    7    5
 3.560874841247296e-15    4    1    7    6
 2.886918677204309e-15    4    1    7    7
 0.05306417549286009    4    1    8    2
 0.06990289053986387    4    1    8    3
 -0.003683948290262615    4    1    8    4
 0.4392401838332978    4    1    8    5
 6.020093549097966e-15    4    1    8    6