 &FCI NORB=  16,NELEC= 8,MS2=0,
  ORBSYM=1,1,1,1,1,1,1,1,1,1,1,1,1,1,1,1
  ISYM=1,
 &END
 0.2501425594223951    1    1    1    1
 0.2534679236332061    1    1    2    2
 -8.951631257257502e-06    1    1    3    2
 0.2528153584370493    1    1    3    3
 -1.972668801933364e-05    1    1    4    2
 2.538785275651122e-05    1    1    4    3
 0.2509451014215491    1    1    4    4
 1.54491198757524e-05    1    1    5    2
 -1.022215142595234e-05    1    1    5    3
 -2.531274079749582e-05    1    1    5    4
 0.243064162360367    1    1    5    5
 0.0007282225897046525    1    1    6    1
 0.2559707719906268    1    1    6    6
 -0.001077537662351637    1    1    7    1
 -4.54944419370614e-06    1    1    7    6
 0.2537389969376188    1    1    7    7
 0.0001621615661263529    1    1    8    1
 -4.887299421331536e-07    1    1    8    6
 7.567296001932159e-07    1    1    8    7
 0.2512798051395576    1    1    8    8
 -0.0004596716041696796    1    1    9    1
 1.387546500922868e-06    1    1    9    6
 -2.123869669057024e-06    1    1    9    7
 -4.616909324690562e-07    1    1    9    8
 0.2504694381538097    1    1    9    9
 -0.001147458944482892    1    1   10    1
 3.517022479528561e-06    1    1   10    6
 -5.309979542181389e-06    1    1   10    7
 -1.174814390980487e-06    1    1   10    8
 3.348447302951862e-06    1    1   10    9
 0.2478378294869105    1    1   10   10
 -0.005586515148970308    1    1   11    1
 -2.469159578838125e-05    1    1   11    6
 3.684969787477807e-05    1    1   11    7
 3.794057523081789e-06    1    1   11    8
 -1.082158108965483e-05    1    1   11    9
 -2.755423273932494e-05    1    1   11   10
 0.2407105624625637    1    1   11   11
 -0.003002513087880696    1    1   12    2
 9.886933436763744e-05    1    1   12    3
 0.0004143175306577981    1    1   12    4
 0.00104938771384896    1    1   12    5
 0.253384082151768    1    1   12   12
 0.0001580417596201327    1    1   13    2
 -0.001836125675821124    1    1   13    3
 -0.0009339361071242554    1    1   13    4
 -0.000747212692192474    1    1   13    5
 -1.835749360384886e-06    1    1   13   12
 0.2527753946200508    1    1   13   13
 0.00045833766269829    1    1   14    2
 -0.0009695445420419384    1    1   14    3
 -0.002336354344428075    1    1   14    4
 -0.001461031844150733    1    1   14    5
 -4.034817048408079e-06    1    1   14   12
 5.304672885174042e-06    1    1   14   13
 0.2508746697481575    1    1   14   14
 -0.001025816070580826    1    1   15    2
 0.0007222286785573909    1    1   15    3
 0.001407918370942934    1    1   15    4
 -0.00662247391746632    1    1   15    5
 -2.883348452976942e-06    1    1   15   12
 1.914828435147301e-06    1    1   15   13
 4.786894460800245e-06    1    1   15   14
 0.2426733076278499    1    1   15   15
 0.0001365254110657146    1    1   16    1
 0.0007113535153480839    1    1   16    6
 -0.001062509256309718    1    1   16    7
 -0.0001647590825350461    1    1   16    8
 0.0004699356936670746    1    1   16    9
 0.001198965157829628    1    1   16   10
 -0.005789008665259781    1    1   16   11
 0.2498500364065153    1    1   16   16
 0.2534679236332061    2    1    2    1
 -8.951631257253165e-06    2    1    3    1
 -1.972668801931282e-05    2    1    4    1
 1.544911987575066e-05    2    1    5    1
 0.2449614470758912    2    1    6    2
 -0.0976288870801641    2    1    6    3
 -0.08563621750209138    2    1    6    4
 -0.02338741643368681    2    1    6    5
 -0.09898544927831315    2    1    7    2
 -0.04200036790849927    2    1    7    3
 0.0224287946860487    2    1    7    4
 0.006159639908551162    2    1    7    5
 -0.04256525531847007    2    1    8    2
 -0.1625759048203259    2    1    8    3
 0.04882370940020433    2    1    8    4
 0.003001315373556283    2    1    8    5
 0.02836282260897536    2    1    9    2
 8.312333953629475e-05    2    1    9    3
 0.1313992812238398    2    1    9    4
 -0.1647551470147581    2    1    9    5
 -0.07588623540249885    2    1   10    2
 -0.03513430514360959    2    1   10    3
 -0.08962970216444968    2    1   10    4
 -0.04733803329632218    2    1   10    5
 -0.08960480668840166    2    1   11    2
 -0.001409889161489582    2    1   11    3
 -0.004887264318115565    2    1   11    4
 0.01791152930893177    2    1   11    5
 -0.003002513087880711    2    1   12    1
 -0.2407447579760988    2    1   12    6
 0.09921894826561722    2    1   12    7
 -0.04463125590828604    2    1   12    8
 0.02976164666546855    2    1   12    9
 -0.07893653784038709    2    1   12   10
 0.09381214430392892    2    1   12   11
 0.0001580417596201361    2    1   13    1
 0.09835265309165908    2    1   13    6
 0.0408545859117403    2    1   13    7
 -0.1636228361686352    2    1   13    8
 -0.001873692776139455    2    1   13    9
 -0.03394980771857084    2    1   13   10
 0.0001412449000092472    2    1   13   11
 0.0004583376626982865    2    1   14    1
 0.08658251054168367    2    1   14    6
 -0.02233532498641586    2    1   14    7
 0.04727064195193542    2    1   14    8
 0.1309886442021661    2    1   14    9
 -0.09091289204195077    2    1   14   10
 0.004038983096654137    2    1   14   11
 -0.001025816070580826    2    1   15    1
 -0.02147412332133504    2    1   15    6
 0.005484797536026807    2    1   15    7
 -0.002857052621420775    2    1   15    8
 0.1599593525559834    2    1   15    9
 0.04609226010388204    2    1   15   10
 0.01863175354603932    2    1   15   11
 0.0030351707462436    2    1   16    2
 -0.0001246211813308116    2    1   16    3
 -0.0004330547023259478    2    1   16    4
 -0.001061314503162804    2    1   16    5
 -0.2498654871536219    2    1   16   12
 0.002993940899189657    2    1   16   13
 0.001629746788777158    2    1   16   14
 0.0002992587622525494    2    1   16   15
 0.253467923633206    2    2    1    1
 0.5900301355196026    2    2    2    2
 -0.03821172829773899    2    2    3    2
 0.1543634955425989    2    2    3    3
 -0.05482257076170562    2    2    4    2
 0.0101400203440066    2    2    4    3
 0.1415671588402495    2    2    4    4
 -0.03611226223506814    2    2    5    2
 0.01250947345295978    2    2    5    3
 -0.06072694657948977    2    2    5    4
 0.1210667355527982    2    2    5    5
 0.2449614470758912    2    2    6    1
 0.5963704870143042    2    2    6    6
 -0.09898544927831314    2    2    7    1
 -0.1718485766254578    2    2    7    6
 0.09431699399562747    2    2    7    7
 -0.04256525531847007    2    2    8    1
 3.636565139301037e-06    2    2    8    6
 -0.0001185731276253686    2    2    8    7
 0.2453698649014289    2    2    8    8
 0.02836282260897536    2    2    9    1
 0.0003775932526539403    2    2    9    6
 -0.0001961156292056759    2    2    9    7
 0.03742502603657705    2    2    9    8
 0.3548349678103671    2    2    9    9
 -0.07588623540249885    2    2   10    1
 0.001667944017593851    2    2   10    6
 -0.0009837201877647586    2    2   10    7
 0.03620626253119904    2    2   10    8
 -0.05200711518268732    2    2   10    9
 0.1406630516554889    2    2   10   10
 -0.08960480668840166    2    2   11    1
 -0.1730692839702619    2    2   11    6
 0.07116389484163602    2    2   11    7
 -0.0008558962370644629    2    2   11    8
 0.0006778179619971133    2    2   11    9
 -0.001888429769633338    2    2   11   10
 0.0685346235000486    2    2   11   11
 -0.2689560987862696    2    2   12    2
 0.1149233609005195    2    2   12    3
 0.1228892259779822    2    2   12    4
 0.02634021701146701    2    2   12    5
 0.5811571044257515    2    2   12   12
 0.1160327069308568    2    2   13    2
 0.06639878492030325    2    2   13    3
 -0.04979283054678208    2    2   13    4
 -0.002220893158060923    2    2   13    5
 -0.03973319348683184    2    2   13   12
 0.1556132291769708    2    2   13   13
 0.124730439455902    2    2   14    2
 -0.04700171207654123    2    2   14    3
 0.07975943144686379    2    2   14    4
 -0.07638518704665484    2    2   14    5
 -0.05406021062546822    2    2   14   12
 0.01038693968543592    2    2   14   13
 0.1420778011936037    2    2   14   14
 -0.02514411294991152    2    2   15    2
 0.002540500970797464    2    2   15    3
 0.07398282930200778    2    2   15    4
 -0.1105749696607428    2    2   15    5
 0.03413849895246639    2    2   15   12
 -0.01300367202619888    2    2   15   13
 0.05877775780133934    2    2   15   14
 0.1141243397484241    2    2   15   15
 0.003035170746243586    2    2   16    1
 0.239168193617135    2    2   16    6
 -0.09752288240535421    2    2   16    7
 0.04236546859899584    2    2   16    8
 -0.02831816685867744    2    2   16    9
 0.0768843552200198    2    2   16   10
 -0.09248350985948757    2    2   16   11
 0.2464420874895289    2    2   16   16
 -8.951631257257502e-06    3    1    2    1
 0.2528153584370492    3    1    3    1
 2.538785275652163e-05    3    1    4    1
 -1.022215142595755e-05    3    1    5    1
 -0.0976288870801641    3    1    6    2
 -0.1651289345379561    3    1    6    3
 -0.04463825800763202    3    1    6    4
 -0.004314311878702141    3    1    6    5
 -0.04200036790849927    3    1    7    2
 -0.09548331411986617    3    1    7    3
 -0.1905887887485107    3    1    7    4
 -0.01743960017965137    3    1    7    5
 -0.1625759048203259    3    1    8    2
 0.09074291837584339    3    1    8    3
 0.02429650630096485    3    1    8    4
 -0.1561472211981533    3    1    8    5
 8.312333953629822e-05    3    1    9    2
 -0.1214241900126448    3    1    9    3
 0.07297499492886708    3    1    9    4
 -0.01593261688141699    3    1    9    5
 -0.03513430514360959    3    1   10    2
 -0.05432336593281382    3    1   10    3
 0.07327726050574557    3    1   10    4
 0.0638122411637615    3    1   10    5
 -0.001409889161489582    3    1   11    2
 -0.1011022467240218    3    1   11    3
 0.008560691743079777    3    1   11    4
 -0.01272057032200993    3    1   11    5
 9.886933436764611e-05    3    1   12    1
 0.09885396554255114    3    1   12    6
 0.04424028959060333    3    1   12    7
 -0.1625517466669938    3    1   12    8
 -0.0009077416203001792    3    1   12    9
 -0.0362273845042458    3    1   12   10
 0.002539039736665955    3    1   12   11
 -0.001836125675821145    3    1   13    1
 0.1612474211259169    3    1   13    6
 0.09273643157789334    3    1   13    7
 0.09292911262310222    3    1   13    8
 -0.1236132733522888    3    1   13    9
 -0.05655282577102921    3    1   13   10
 0.1054726753444725    3    1   13   11
 -0.0009695445420419349    3    1   14    1
 0.0450142906713611    3    1   14    6
 0.1889901823735902    3    1   14    7
 0.02585939723776266    3    1   14    8
 0.07193221555972509    3    1   14    9
 0.07431111956495408    3    1   14   10
 -0.007070924982418325    3    1   14   11
 0.0007222286785573961    3    1   15    1
 -0.0040349278951769    3    1   15    6
 -0.01600867115804326    3    1   15    7
 0.1511894761547444    3    1   15    8
 0.01553613602754797    3    1   15    9
 -0.06225131695257357    3    1   15   10
 -0.01328390733135334    3    1   15   11
 -0.0001246211813308151    3    1   16    2
 0.001894561938507355    3    1   16    3
 0.0009428337252826054    3    1   16    4
 0.0007479193376089214    3    1   16    5
 -0.003015846164588576    3    1   16   12
 -0.2498569458534357    3    1   16   13
 -0.002770087800163691    3    1   16   14
 -0.0002096831868295332    3    1   16   15
 -8.951631257256634e-06    3    2    1    1
 -0.03821172829773899    3    2    2    2
 0.1543634955425989    3    2    3    2
 0.02833224714919939    3    2    3    3
 0.0101400203440066    3    2    4    2
 0.02244033079638316    3    2    4    3
 0.01441823799650899    3    2    4    4
 0.01250947345295978    3    2    5    2
 0.09658150326810477    3    2    5    3
 -0.06161428150919195    3    2    5    4
 -0.004546113332750297    3    2    5    5
 -0.09762888708016408    3    2    6    1
 -0.03002114409487774    3    2    6    6
 -0.04200036790849927    3    2    7    1
 0.1211111625042557    3    2    7    6
 0.02981382033455111    3    2    7    7
 -0.1625759048203259    3    2    8    1
 0.0006073797709758272    3    2    8    6
 -0.0008577039093180022    3    2    8    7
 -0.056597038060811    3    2    8    8
 8.312333953629475e-05    3    2    9    1
 -0.0001817539098456433    3    2    9    6
 -0.0001238150178858437    3    2    9    7
 0.1865433080327655    3    2    9    8
 0.09709113849056362    3    2    9    9
 -0.03513430514360959    3    2   10    1
 -0.0005461121137062064    3    2   10    6
 -0.0004358771254091322    3    2   10    7
 0.114090528328964    3    2   10    8
 -0.01243451097755825    3    2   10    9
 -0.04011467569980771    3    2   10   10
 -0.001409889161489587    3    2   11    1
 0.07237917104921976    3    2   11    6
 0.03603304970664685    3    2   11    7
 -0.003146875726915441    3    2   11    8
 -3.79347264503686e-06    3    2   11    9
 -0.001035892790852884    3    2   11   10
 -0.0001613606859682939    3    2   11   11
 0.1149233609005195    3    2   12    2
 0.06526325834637413    3    2   12    3
 -0.04817159424873751    3    2   12    4
 -0.002193914637324843    3    2   12    5
 -0.03145006483337125    3    2   12   12
 0.06639878492030325    3    2   13    2
 -0.1296204210230896    3    2   13    3
 -0.07423941008500777    3    2   13    4
 0.08858082958578668    3    2   13    5
 0.1558895756811176    3    2   13   12
 0.02219099227010353    3    2   13   13
 -0.04700171207654122    3    2   14    2
 -0.07565300215195642    3    2   14    3
 0.01767552029767315    3    2   14    4
 -0.06125327155679976    3    2   14    5
 0.01180251826045151    3    2   14   12
 0.02013338451835603    3    2   14   13
 0.01367728406036816    3    2   14   14
 0.002540500970797463    3    2   15    2
 -0.08472120299646338    3    2   15    3
 0.06024514728834293    3    2   15    4
 0.00246775574533697    3    2   15    5
 -0.01261297848271346    3    2   15   12
 -0.09417524253860628    3    2   15   13
 0.05922237047728144    3    2   15   14
 -0.004410855012319205    3    2   15   15
 -0.0001246211813308055    3    2   16    1
 -0.09531276028324996    3    2   16    6
 -0.04133479343545823    3    2   16    7
 0.1617009427255812    3    2   16    8
 -8.294636488024015e-05    3    2   16    9
 0.0354503525756375    3    2   16   10
 -0.00131776301826385    3    2   16   11
 -1.788652392215734e-06    3    2   16   16
 0.2528153584370493    3    3    1    1
 0.1543634955425989    3    3    2    2
 0.02833224714919939    3    3    3    2
 0.5384760565083294    3    3    3    3
 0.02244033079638316    3    3    4    2
 0.05424567874579662    3    3    4    3
 0.1965209514192572    3    3    4    4
 0.09658150326810479    3    3    5    2
 -0.04796530330844577    3    3    5    3
 0.0125233144042502    3    3    5    4
 0.1164167062393615    3    3    5    5
 -0.1651289345379561    3    3    6    1
 0.3002868632756814    3    3    6    6
 -0.09548331411986617    3    3    7    1
 0.2206850467060444    3    3    7    6
 0.3698115706366726    3    3    7    7
 0.09074291837584338    3    3    8    1
 -0.000213504602220348    3    3    8    6
 0.000593950385062486    3    3    8    7
 0.4703666486148065    3    3    8    8
 -0.1214241900126448    3    3    9    1
 3.31722514991005e-05    3    3    9    6
 -0.0007828822302657975    3    3    9    7
 -0.05516498027877736    3    3    9    8
 0.1633194123817245    3    3    9    9
 -0.05432336593281382    3    3   10    1
 -0.0009778756471256886    3    3   10    6
 -0.0008720789707115995    3    3   10    7
 -0.05666884317633583    3    3   10    8
 0.0889300338837487    3    3   10    9
 0.1105790650458041    3    3   10   10
 -0.1011022467240218    3    3   11    1
 0.1314563815981577    3    3   11    6
 0.06640924197151175    3    3   11    7
 0.001773346599217033    3    3   11    8
 -0.002587972437360112    3    3   11    9
 -0.001560405768543347    3    3   11   10
 0.08578228099377613    3    3   11   11
 0.06526325834637413    3    3   12    2
 -0.1318089241367266    3    3   12    3
 -0.07707267815495998    3    3   12    4
 0.08689968131328714    3    3   12    5
 0.1564059765092206    3    3   12   12
 -0.1296204210230896    3    3   13    2
 -0.0774151509054174    3    3   13    3
 -0.1377608412554792    3    3   13    4
 -0.07910417786284994    3    3   13    5
 0.0310945135558843    3    3   13   12
 0.5339192972386001    3    3   13   13
 -0.07565300215195643    3    3   14    2
 -0.1390071105814394    3    3   14    3
 -0.1046298178120827    3    3   14    4
 -0.0148853151162348    3    3   14    5
 0.02244284885389326    3    3   14   12
 0.05415302488550774    3    3   14   13
 0.1945227772985145    3    3   14   14
 -0.08472120299646338    3    3   15    2
 0.07492070395088062    3    3   15    3
 0.01299459061350111    3    3   15    4
 -0.1090965129141752    3    3   15    5
 -0.0932476023576361    3    3   15   12
 0.04844591020360154    3    3   15   13
 -0.01088499311743374    3    3   15   14
 0.1093747392441179    3    3   15   15
 0.001894561938507326    3    3   16    1
 -0.1611015162185908    3    3   16    6
 -0.09428813485082452    3    3   16    7
 -0.09030922067016856    3    3   16    8
 0.1213566563757476    3    3   16    9
 0.05555050318603798    3    3   16   10
 -0.1042239260268304    3    3   16   11
 0.2470388006144854    3    3   16   16
 -1.972668801931976e-05    4    1    2    1
 2.538785275652163e-05    4    1    3    1
 0.2509451014215491    4    1    4    1
 -2.531274079749929e-05    4    1    5    1
 -0.08563621750209137    4    1    6    2
 -0.04463825800763202    4    1    6    3
 -0.07071210857474722    4    1    6    4
 -0.002313284669808008    4    1    6    5
 0.0224287946860487    4    1    7    2
 -0.1905887887485107    4    1    7    3
 0.1786255568017853    4    1    7    4
 0.005348900751281725    4    1    7    5
 0.04882370940020433    4    1    8    2
 0.02429650630096486    4    1    8    3
 -0.04581763043956582    4    1    8    4
 0.05684801841609394    4    1    8    5
 0.1313992812238398    4    1    9    2
 0.07297499492886711    4    1    9    3
 0.08337297594269644    4    1    9    4
 -0.03760155349436062    4    1    9    5
 -0.08962970216444968    4    1   10    2
 0.07327726050574555    4    1   10    3
 0.09377100548262596    4    1   10    4
 0.1763445419472277    4    1   10    5
 -0.004887264318115561    4    1   11    2
 0.008560691743079777    4    1   11    3
 -0.1086325884009092    4    1   11    4
 -0.03081405850810948    4    1   11    5
 0.0004143175306578067    4    1   12    1
 0.08569461433516713    4    1   12    6
 -0.02120333449576612    4    1   12    7
 0.04921383255953794    4    1   12    8
 0.1343682863960892    4    1   12    9
 -0.09050734040044676    4    1   12   10
 0.005324526676978571    4    1   12   11
 -0.0009339361071242554    4    1   13    1
 0.04236548601590615    4    1   13    6
 0.1918222597062398    4    1   13    7
 0.02432007639880293    4    1   13    8
 0.07132483248965564    4    1   13    9
 0.07528937816004552    4    1   13   10
 -0.009635467204690475    4    1   13   11
 -0.002336354344428103    4    1   14    1
 0.06936142018540152    4    1   14    6
 -0.1746028730435472    4    1   14    7
 -0.04548196558899493    4    1   14    8
 0.08291050810518097    4    1   14    9
 0.09561957679486345    4    1   14   10
 0.1140848811548948    4    1   14   11
 0.001407918370942941    4    1   15    1
 -0.002202102013035327    4    1   15    6
 0.005081452038612285    4    1   15    7
 -0.05510159590273043    4    1   15    8
 0.03663566503434067    4    1   15    9
 -0.172088422516388    4    1   15   10
 -0.03194510906014951    4    1   15   11
 -0.00043305470232596    4    1   16    2
 0.000942833725282614    4    1   16    3
 0.002381135260634493    4    1   16    4
 0.001457094719113136    4    1   16    5
 -0.001605028743807465    4    1   16   12
 0.002800523234403539    4    1   16   13
 -0.2498578303664706    4    1   16   14
 -0.0006245246040597445    4    1   16   15
 -1.972668801931456e-05    4    2    1    1
 -0.05482257076170562    4    2    2    2
 0.01014002034400659    4    2    3    2
 0.02244033079638317    4    2    3    3
 0.1415671588402495    4    2    4    2
 0.01441823799650899    4    2    4    3
 0.04258266923082375    4    2    4    4
 -0.06072694657948979    4    2    5    2
 -0.06161428150919195    4    2    5    3
 -0.07058126317348021    4    2    5    4
 -0.01021671436728375    4    2    5    5
 -0.08563621750209138    4    2    6    1
 -0.08124858301782385    4    2    6    6
 0.0224287946860487    4    2    7    1
 0.06794220806280638    4    2    7    6
 0.07698211891488743    4    2    7    7
 0.04882370940020433    4    2    8    1
 -0.00011510711833719    4    2    8    6
 0.0002365646328635623    4    2    8    7
 -0.06478404837229376    4    2    8    8
 0.1313992812238398    4    2    9    1
 -0.0005501036180074178    4    2    9    6
 0.000644697838475268    4    2    9    7
 -0.1090224353392618    4    2    9    8
 0.1660542331410557    4    2    9    9
 -0.08962970216444968    4    2   10    1
 -0.0003686917518370542    4    2   10    6
 -4.183736485884347e-06    4    2   10    7
 -0.02478973270045425    4    2   10    8
 -0.1484753043670084    4    2   10    9
 -0.09995675495334411    4    2   10   10
 -0.004887264318115563    4    2   11    1
 0.06380287976032487    4    2   11    6
 -0.0201026750617712    4    2   11    7
 0.0009673294342883752    4    2   11    8
 0.002694571546119035    4    2   11    9
 -0.002712142114589411    4    2   11   10
 0.002976743761430653    4    2   11   11
 0.1228892259779822    4    2   12    2
 -0.04817159424873751    4    2   12    3
 0.0821342596725559    4    2   12    4
 -0.07845835165255211    4    2   12    5
 -0.04919528325443516    4    2   12   12
 -0.04979283054678209    4    2   13    2
 -0.07423941008500777    4    2   13    3
 0.01789272830487129    4    2   13    4
 -0.06093896167264448    4    2   13    5
 0.008844726579091029    4    2   13   12
 0.02050835224622751    4    2   13   13
 0.07975943144686379    4    2   14    2
 0.01767552029767315    4    2   14    3
 -0.04088303698405046    4    2   14    4
 -0.07543103793561154    4    2   14    5
 0.1436629223632102    4    2   14   12
 0.01155862895087208    4    2   14   13
 0.03886469828795695    4    2   14   14
 0.07398282930200778    4    2   15    2
 0.06024514728834293    4    2   15    3
 0.07258572747786268    4    2   15    4
 0.006059608481875305    4    2   15    5
 0.06118405244801278    4    2   15   12
 0.05912547760589701    4    2   15   13
 0.07018878855929667    4    2   15   14
 -0.01016148217796577    4    2   15   15
 -0.0004330547023259496    4    2   16    1
 -0.08358001723049414    4    2   16    6
 0.02206047698574571    4    2   16    7
 -0.04859083348335824    4    2   16    8
 -0.1310389480708831    4    2   16    9
 0.09052549873911253    4    2   16   10
 -0.00466579202092732    4    2   16   11
 -3.982785891795682e-06    4    2   16   16
 2.538785275652856e-05    4    3    1    1
 0.0101400203440066    4    3    2    2
 0.02244033079638317    4    3    3    2
 0.05424567874579663    4    3    3    3
 0.01441823799650899    4    3    4    2
 0.1965209514192572    4    3    4    3
 -0.07813225626183024    4    3    4    4
 -0.06161428150919195    4    3    5    2
 0.01252331440425019    4    3    5    3
 0.04196414799317384    4    3    5    4
 0.01376775875205913    4    3    5    5
 -0.04463825800763203    4    3    6    1
 0.1460984320391257    4    3    6    6
 -0.1905887887485107    4    3    7    1
 0.1660961408104393    4    3    7    6
 -0.1321039419620111    4    3    7    7
 0.02429650630096486    4    3    8    1
 -6.889150318967718e-05    4    3    8    6
 0.0003542308825739273    4    3    8    7
 -0.123278199177095    4    3    8    8
 0.07297499492886711    4    3    9    1
 -0.0002771777205648413    4    3    9    6
 -0.0003091706503243088    4    3    9    7
 -0.0572985659707816    4    3    9    8
 -0.01798360438013896    4    3    9    9
 0.07327726050574554    4    3   10    1
 -0.0004119929530865288    4    3   10    6
 -0.001476400603230745    4    3   10    7
 -0.02346765838184552    4    3   10    8
 -0.03922126835495134    4    3   10    9
 0.1384180198482125    4    3   10   10
 0.008560691743079774    4    3   11    1
 0.03231232335762392    4    3   11    6
 0.1657698305834034    4    3   11    7
 0.0004094675349529008    4    3   11    8
 0.0016774983183045    4    3   11    9
 0.00241640656757672    4    3   11   10
 -0.01118123696067917    4    3   11   11
 -0.04817159424873751    4    3   12    2
 -0.07707267815495997    4    3   12    3
 0.01831845278090977    4    3   12    4
 -0.06270206264126583    4    3   12    5
 0.01038013832079058    4    3   12   12
 -0.07423941008500777    4    3   13    2
 -0.1377608412554792    4    3   13    3
 -0.1064232375380374    4    3   13    4
 -0.01365278867705493    4    3   13    5
 0.02267581357806746    4    3   13   12
 0.04644312943643147    4    3   13   13
 0.01767552029767315    4    3   14    2
 -0.1046298178120827    4    3   14    3
 0.1711525625831197    4    3   14    4
 0.05241141450299187    4    3   14    5
 0.0156539390958277    4    3   14   12
 0.1961414609947737    4    3   14   13
 -0.07066771250374768    4    3   14   14
 0.06024514728834293    4    3   15    2
 0.01299459061350111    4    3   15    3
 -0.05010624023669781    4    3   15    4
 -0.01102259213863274    4    3   15    5
 0.06037366249507533    4    3   15   12
 -0.01209461772170934    4    3   15   13
 -0.04240432260646736    4    3   15   14
 0.01382324316649293    4    3   15   15
 0.0009428337252826019    4    3   16    1
 -0.04367184261798893    4    3   16    6
 -0.187488139666091    4    3   16    7
 -0.02407012379924518    4    3   16    8
 -0.07302609831808543    4    3   16    9
 -0.0742276980445131    4    3   16   10
 0.008233314842340661    4    3   16   11
 5.142739829482046e-06    4    3   16   16
 0.2509451014215491    4    4    1    1
 0.1415671588402495    4    4    2    2
 0.01441823799650898    4    4    3    2
 0.1965209514192572    4    4    3    3
 0.04258266923082377    4    4    4    2
 -0.07813225626183021    4    4    4    3
 0.5159115381081915    4    4    4    4
 -0.07058126317348021    4    4    5    2
 0.04196414799317384    4    4    5    3
 0.06214752597539912    4    4    5    4
 0.1480560115191136    4    4    5    5
 -0.07071210857474722    4    4    6    1
 0.110903183578936    4    4    6    6
 0.1786255568017853    4    4    7    1
 -0.04737261095252718    4    4    7    6
 0.5395544212294264    4    4    7    7
 -0.04581763043956582    4    4    8    1
 0.0002267778357332658    4    4    8    6
 -0.0005273112757939925    4    4    8    7
 0.06541805254659946    4    4    8    8
 0.08337297594269642    4    4    9    1
 -0.0004456469917561437    4    4    9    6
 0.001083432593808674    4    4    9    7
 0.01894944139474985    4    4    9    8
 0.2490994576494424    4    4    9    9
 0.09377100548262596    4    4   10    1
 -0.0007516366278055987    4    4   10    6
 0.002018928218039511    4    4   10    7
 0.02233723122875452    4    4   10    8
 -0.04122325939086728    4    4   10    9
 0.4282268598338957    4    4   10   10
 -0.1086325884009092    4    4   11    1
 0.06243942171243496    4    4   11    6
 -0.1718110000542836    4    4   11    7
 -0.0008249108061153728    4    4   11    8
 0.001617247389294539    4    4   11    9
 0.002651486879931855    4    4   11   10
 0.1069648463325254    4    4   11   11
 0.08213425967255589    4    4   12    2
 0.01831845278090976    4    4   12    3
 -0.03949790498608861    4    4   12    4
 -0.07534280902782822    4    4   12    5
 0.1453654354493654    4    4   12   12
 0.01789272830487129    4    4   13    2
 -0.1064232375380374    4    4   13    3
 0.1754860789511769    4    4   13    4
 0.05326230975865376    4    4   13    5
 0.01345404133803399    4    4   13   12
 0.197983448913132    4    4   13   13
 -0.04088303698405046    4    4   14    2
 0.1711525625831197    4    4   14    3
 -0.1215953068701736    4    4   14    4
 0.02638636253955676    4    4   14    5
 0.04256881161270014    4    4   14   12
 -0.0795965878962813    4    4   14   13
 0.5132954396969253    4    4   14   14
 0.07258572747786268    4    4   15    2
 -0.05010624023669781    4    4   15    3
 -0.0242585699197918    4    4   15    4
 -0.1361966832391955    4    4   15    5
 0.06984322133664397    4    4   15   12
 -0.04242894563442082    4    4   15   13
 -0.06290301261562133    4    4   15   14
 0.1413000160537688    4    4   15   15
 0.002381135260634479    4    4   16    1
 -0.06916838463904668    4    4   16    6
 0.1761962382047008    4    4   16    7
 0.04538284697607283    4    4   16    8
 -0.08270588997344294    4    4   16    9
 -0.09335489694777815    4    4   16   10
 -0.113712016949234    4    4   16   11
 0.2488880774076271    4    4   16   16
 1.544911987574372e-05    5    1    2    1
 -1.022215142595408e-05    5    1    3    1
 -2.531274079749582e-05    5    1    4    1
 0.243064162360367    5    1    5    1
 -0.02338741643368681    5    1    6    2
 -0.004314311878702141    5    1    6    3
 -0.002313284669808009    5    1    6    4
 -0.007689751025677019    5    1    6    5
 0.006159639908551163    5    1    7    2
 -0.01743960017965137    5    1    7    3
 0.005348900751281725    5    1    7    4
 0.0137123048220413    5    1    7    5
 0.00300131537355628    5    1    8    2
 -0.1561472211981533    5    1    8    3
 0.05684801841609394    5    1    8    4
 -0.002036708518323362    5    1    8    5
 -0.1647551470147581    5    1    9    2
 -0.015932616881417    5    1    9    3
 -0.0376015534943606    5    1    9    4
 0.008769968820864614    5    1    9    5
 -0.04733803329632218    5    1   10    2
 0.0638122411637615    5    1   10    3