 &FCI NORB=  14,NELEC= 8,MS2=0,
  ORBSYM=1,1,1,1,1,1,1,1,1,1,1,1,1,1
  ISYM=1,
 &END
 0.7143408715486955    1    1    1    1
 -0.001045249354566888    1    1    2    1
 0.7178070149427551    1    1    2    2
 -0.003374965144695603    1    1    3    1
 -6.579075826768088e-06    1    1    3    2
 0.7107832193024337    1    1    3    3
 -0.004046670192411346    1    1    4    1
 -0.0009834269713459298    1    1    4    2
 -0.001423727720741286    1    1    4    3
 0.7144296804397712    1    1    4    4
 -0.002825765352205432    1    1    5    1
 0.003330681025918554    1    1    5    2
 -0.000561593578186137    1    1    5    3
 -1.201025398175209e-05    1    1    5    4
 0.7141175383633938    1    1    5    5
 0.001350863371515257    1    1    6    1
 -0.000177753235946071    1    1    6    2
 -0.003412618506605555    1    1    6    3
 -0.001616191549207016    1    1    6    4
 -0.001809847819194521    1    1    6    5
 0.7147688293894471    1    1    6    6
 -0.0004177136919259559    1    1    7    1
 0.003540614620320546    1    1    7    2
 -0.000456124540325363    1    1    7    3
 0.001824441862089864    1    1    7    4
 -0.001809599611055828    1    1    7    5
 -7.586500676035751e-06    1    1    7    6
 0.713798991791611    1    1    7    7
 1.539695932893659e-05    1    1    8    1
 0.0006830432966345029    1    1    8    2
 -0.000678033486452477    1    1    8    3
 0.001150381030966097    1    1    8    4
 0.003112969425056983    1    1    8    5
 0.001660723773519529    1    1    8    6
 0.001902886358763674    1    1    8    7
 0.7147757778600714    1    1    8    8
 -0.0002210682257512732    1    1    9    1
 -0.0006088612485379737    1    1    9    2
 -0.0008319633953665067    1    1    9    3
 0.003062836041925622    1    1    9    4
 -0.002116021448204226    1    1    9    5
 0.001892537814434755    1    1    9    6
 -0.001588085304531197    1    1    9    7
 4.190625563924716e-06    1    1    9    8
 0.7137992968156082    1    1    9    9
 7.323803374710558e-06    1    1   10    1
 -0.0003162663454660541    1    1   10    2
 -0.0001086607729367806    1    1   10    3
 0.0004257393869779441    1    1   10    4
 -0.0009131310386045546    1    1   10    5
 0.001208743928825057    1    1   10    6
 0.0030196764500856    1    1   10    7
 -0.001674531460322884    1    1   10    8
 0.001781744387966498    1    1   10    9
 0.7144565236684763    1    1   10   10
 0.0001169315518207356    1    1   11    1
 -0.0002824984278667966    1    1   11    2
 0.0005771626904863686    1    1   11    3
 0.0009107458588871603    1    1   11    4
 0.0003529288659267216    1    1   11    5
 -0.003089100359280145    1    1   11    6
 0.002185739404223903    1    1   11    7
 0.001785607635762174    1    1   11    8
 0.001825226489128404    1    1   11    9
 -1.538085787575888e-05    1    1   11   10
 0.714139332921138    1    1   11   11
 -0.0003711920045390976    1    1   12    1
 -7.968844105157857e-05    1    1   12    2
 -7.654466340032556e-05    1    1   12    3
 0.0003193777220307642    1    1   12    4
 -0.0002760962967843089    1    1   12    5
 -0.0006737759083737804    1    1   12    6
 0.0006003258274938431    1    1   12    7
 0.0001734000175569878    1    1   12    8
 -0.003562116255787905    1    1   12    9
 0.0009045916389932851    1    1   12   10
 0.003380800752686763    1    1   12   11
 0.7177515304148967    1    1   12   12
 0.0005790369860519673    1    1   13    1
 -7.239160209771001e-05    1    1   13    2
 6.957572526750111e-06    1    1   13    3
 9.617291658434168e-05    1    1   13    4
 0.000577596754341235    1    1   13    5
 0.0006767181920015117    1    1   13    6
 0.0008373358455764403    1    1   13    7
 0.003402562521832693    1    1   13    8
 0.0004537244284918123    1    1   13    9
 0.001405246749863268    1    1   13   10
 -0.0005173663242164783    1    1   13   11
 3.002369453254661e-06    1    1   13   12
 0.7108007702282363    1    1   13   13
 3.634729741990028e-05    1    1   14    1
 0.0003705304522635747    1    1   14    2
 -0.0005803538996953586    1    1   14    3
 1.027642523242223e-05    1    1   14    4
 -0.0001261073107424043    1    1   14    5
 2.465293504524957e-05    1    1   14    6
 -0.0002213367943865365    1    1   14    7
 0.001326626514486604    1    1   14    8
 -0.0004171478871755549    1    1   14    9
 -0.004118736855980812    1    1   14   10
 0.002738204686578823    1    1   14   11
 0.001023484151258774    1    1   14   12
 0.003380612951600637    1    1   14   13
 0.7142306223134802    1    1   14   14
 -0.001045249354566874    2    1    1    1
 0.7178070149427551    2    1    2    1
 -0.0007389209960928372    2    1    2    2
 -6.579075826781966e-06    2    1    3    1
 -0.002459744374899944    2    1    3    2
 0.001413847554396823    2    1    3    3
 -0.0009834269713458604    2    1    4    1
 -0.4155819015988935    2    1    4    2
 0.2890929310642285    2    1    4    3
 -0.001130579688176508    2    1    4    4
 0.00333068102591854    2    1    5    1
 -0.2895757523899692    2    1    5    2
 -0.414042749484741    2    1    5    3
 0.001214655434559425    2    1    5    4
 0.00124064596420833    2    1    5    5
 -0.000177753235946071    2    1    6    1
 0.003592657963857368    2    1    6    2
 0.0002511496771886029    2    1    6    3
 -0.2512564185007787    2    1    6    4
 0.4402962114169282    2    1    6    5
 0.0001822924973438889    2    1    6    6
 0.003540614620320546    2    1    7    1
 -0.00098147287672639    2    1    7    2
 0.001263028881844919    2    1    7    3
 -0.438950461690337    2    1    7    4
 -0.2504896710918154    2    1    7    5
 7.171549955948056e-05    2    1    7    6
 -0.000156356905939509    2    1    7    7
 0.0006830432966344752    2    1    8    1
 -0.001622553363785528    2    1    8    2
 -0.001073356063134814    2    1    8    3
 -0.002409156434494769    2    1    8    4
 0.0004825694089771182    2    1    8    5
 0.2719461119896809    2    1    8    6
 -0.4279688809948001    2    1    8    7
 -0.0002025033889097444    2    1    8    8
 -0.0006088612485380153    2    1    9    1
 -0.00109031990497516    2    1    9    2
 0.001994439706432377    2    1    9    3
 0.0002296129977060468    2    1    9    4
 0.002557793839750142    2    1    9    5
 -0.426655332271788    2    1    9    6
 -0.2712045097803176    2    1    9    7
 -0.0002117351687447692    2    1    9    8
 0.0001761165842446774    2    1    9    9
 -0.0003162663454661097    2    1   10    1
 0.0001161643322264705    2    1   10    2
 0.0006144323400134946    2    1   10    3
 -0.001606397297716611    2    1   10    4
 0.0001287488416163649    2    1   10    5
 -0.00252453516007542    2    1   10    6
 0.0003772216758851435    2    1   10    7
 -0.2419727615577225    2    1   10    8
 -0.4451323686312167    2    1   10    9
 0.001826338259089691    2    1   10   10
 -0.0002824984278668452    2    1   11    1
 -0.0004517730635949929    2    1   11    2
 0.0001436904309629061    2    1   11    3
 0.0004646315544254154    2    1   11    4
 -0.002334738392968723    2    1   11    5
 -0.0004303812664730317    2    1   11    6
 -0.002439955072441588    2    1   11    7
 -0.4447761049108662    2    1   11    8
 0.2417860608153585    2    1   11    9
 0.00198458790371972    2    1   11   10
 -0.001953859439776835    2    1   11   11
 -7.968844105160633e-05    2    1   12    1
 -0.0004785515008703667    2    1   12    2
 0.0002541127350261449    2    1   12    3
 -8.676322863492014e-05    2    1   12    4
 -0.0004128453107757543    2    1   12    5
 0.001118512776568742    2    1   12    6
 0.0006990488506938911    2    1   12    7
 -0.002267948970707895    2    1   12    8
 0.0005497061310054396    2    1   12    9
 0.4245956427839276    2    1   12   10
 -0.282567504192358    2    1   12   11
 -0.0008882549966830883    2    1   12   12
 -7.239160209773082e-05    2    1   13    1
 0.0003988415794515671    2    1   13    2
 -0.0002622081884635571    2    1   13    3
 -0.0005446164688013774    2    1   13    4
 0.0001352915927091622    2    1   13    5
 0.001266647482478234    2    1   13    6
 -0.00201159281378371    2    1   13    7
 -0.0007437864839161534    2    1   13    8
 -0.002595233451226798    2    1   13    9
 -0.2791405623458094    2    1   13   10
 -0.4192672562108364    2    1   13   11
 -0.002258304100069844    2    1   13   12
 0.0002894861261661663    2    1   13   13
 0.0003705304522635886    2    1   14    1
 8.16802749405432e-05    2    1   14    2
 6.867497523599386e-05    2    1   14    3
 -0.0004581184146351808    2    1   14    4
 0.0003076492687727195    2    1   14    5
 0.0004020658840838409    2    1   14    6
 -0.0003835623528996093    2    1   14    7
 8.61383871460647e-05    2    1   14    8
 0.002057035411217729    2    1   14    9
 -0.0007774593143384245    2    1   14   10
 -0.003557399577757261    2    1   14   11
 -0.7142471274680905    2    1   14   12
 0.0006644621488894852    2    1   14   13
 0.0009869977846947708    2    1   14   14
 0.7178070149427551    2    2    1    1
 -0.0007389209960929066    2    2    2    1
 1.073481907234577    2    2    2    2
 -0.00245974437489991    2    2    3    1
 -0.0002754077580387204    2    2    3    2
 0.3570406332050274    2    2    3    3
 -0.4155819015988934    2    2    4    1
 -0.001550946109421941    2    2    4    2
 -4.168245737797005e-05    2    2    4    3
 0.7128117585050281    2    2    4    4
 -0.2895757523899692    2    2    5    1
 0.002217637204525141    2    2    5    2
 -0.001045678208176158    2    2    5    3
 -0.001462734308475697    2    2    5    4
 0.7138077416796629    2    2    5    5
 0.003592657963857354    2    2    6    1
 -0.03216793554660581    2    2    6    2
 -0.3565669035335307    2    2    6    3
 -0.0008252987586256366    2    2    6    4
 -0.0004602085009203227    2    2    6    5
 0.7143433373609819    2    2    6    6
 -0.0009814728767264004    2    2    7    1
 0.3567974810020577    2    2    7    2
 -0.03236701831598366    2    2    7    3
 0.0009632079594446945    2    2    7    4
 -0.002235878229321865    2    2    7    5
 -0.0007872450028067642    2    2    7    6
 0.7138434036468063    2    2    7    7
 -0.001622553363785556    2    2    8    1
 0.002185144458555    2    2    8    2
 -0.0009536835909427777    2    2    8    3
 0.1668589699756455    2    2    8    4
 0.3170775662008606    2    2    8    5
 0.001548447581907281    2    2    8    6
 0.001055574768909426    2    2    8    7
 0.7150424402065894    2    2    8    8
 -0.00109031990497516    2    2    9    1
 -0.001984002796784387    2    2    9    2
 -0.001060571842626269    2    2    9    3
 0.3163700084462653    2    2    9    4
 -0.167554126127588    2    2    9    5
 0.0006219163356061333    2    2    9    6
 -0.001392047093541942    2    2    9    7
 0.0004496757445335078    2    2    9    8
 0.7139155146402568    2    2    9    9
 0.0001161643322264427    2    2   10    1
 0.000374743567713956    2    2   10    2
 -0.0005559669489196978    2    2   10    3
 0.0008487962642995533    2    2   10    4
 -0.002070263294248115    2    2   10    5
 0.1732448291764158    2    2   10    6
 0.3131894605186457    2    2   10    7
 -0.002646362491024221    2    2   10    8
 0.0004093696030165357    2    2   10    9
 0.7166458086832413    2    2   10   10
 -0.0004517730635949999    2    2   11    1
 0.0001831722216183718    2    2   11    2
 0.001211568956168974    2    2   11    3
 0.001824006158510486    2    2   11    4
 0.0006770607531415007    2    2   11    5
 -0.3132499585895825    2    2   11    6
 0.1741542270812108    2    2   11    7
 0.001174055820094611    2    2   11    8
 0.0003473868879484143    2    2   11    9
 -0.002699850906937654    2    2   11   10
 0.713883383173768    2    2   11   11
 -0.0004785515008703251    2    2   12    1
 8.949712388262032e-05    2    2   12    2
 0.0001701386405700001    2    2   12    3
 -0.0001221428911541006    2    2   12    4
 0.0003951734172863985    2    2   12    5
 -0.001248705248394863    2    2   12    6
 0.001127942391203059    2    2   12    7
 0.03175701442323621    2    2   12    8
 -0.3581419908462156    2    2   12    9
 0.001459396110375349    2    2   12   10
 0.004543752130486543    2    2   12   11
 1.071387327179014    2    2   12   12
 0.0003988415794515948    2    2   13    1
 0.0001344283545724329    2    2   13    2
 -0.0002526830012100148    2    2   13    3
 5.549262528095622e-05    2    2   13    4
 0.001053358627810586    2    2   13    5
 0.001534807572356037    2    2   13    6
 0.001716943698887205    2    2   13    7
 0.3553743535014694    2    2   13    8
 0.03183724953586313    2    2   13    9
 -0.001409167082886284    2    2   13   10
 -3.612732384865314e-05    2    2   13   11
 -0.000659881099278406    2    2   13   12
 0.3552201994065929    2    2   13   13
 8.168027494052932e-05    2    2   14    1
 0.0005447576163572082    2    2   14    2
 -0.0003277668141174958    2    2   14    3
 4.512319351661354e-05    2    2   14    4
 0.0001744737458670015    2    2   14    5
 -6.289791481028928e-05    2    2   14    6
 -0.0002114426314571566    2    2   14    7
 0.002107066523438533    2    2   14    8
 -0.0006170617342079916    2    2   14    9
 -0.4219471224893562    2    2   14   10
 0.2801339641826178    2    2   14   11
 -0.0009630088807993653    2    2   14   12
 0.002316783539068598    2    2   14   13
 0.710769530135713    2    2   14   14
 -0.003374965144695624    3    1    1    1
 -6.579075826768088e-06    3    1    2    1
 -0.002459744374899944    3    1    2    2
 0.7107832193024337    3    1    3    1
 0.001413847554396816    3    1    3    2
 0.004622331080436276    3    1    3    3
 -0.0014237277207413    3    1    4    1
 0.2890929310642285    3    1    4    2
 0.41332739530973    3    1    4    3
 -0.0004441709705145305    3    1    4    4
 -0.0005615935781861023    3    1    5    1
 -0.414042749484741    3    1    5    2
 0.2880106864388304    3    1    5    3
 -0.0008033176956842927    3    1    5    4
 0.0008137796702185687    3    1    5    5
 -0.00341261850660559    3    1    6    1
 0.000251149677188589    3    1    6    2
 0.001028254639682105    3    1    6    3
 0.4383797168725955    3    1    6    4
 0.2501550584959228    3    1    6    5
 -0.000250041613085214    3    1    6    6
 -0.0004561245403253752    3    1    7    1
 0.001263028881844935    3    1    7    2
 -0.0004593153659814813    3    1    7    3
 -0.2494003924407258    3    1    7    4
 0.437042106346098    3    1    7    5
 1.745394267799183e-05    3    1    7    6
 0.0003318470785379879    3    1    7    7
 -0.0006780334864524493    3    1    8    1
 -0.001073356063134814    3    1    8    2
 0.001689947012499936    3    1    8    3
 -2.3952215880918e-05    3    1    8    4
 -1.96804337511472e-05    3    1    8    5
 -0.4258034635271769    3    1    8    6
 -0.2706596097648514    3    1    8    7
 0.0003072824839127214    3    1    8    8
 -0.0008319633953665414    3    1    9    1
 0.001994439706432359    3    1    9    2
 0.0005184742037810594    3    1    9    3
 -0.0001564431064482851    3    1    9    4
 -0.0002574827484047547    3    1    9    5
 -0.269830272492621    3    1    9    6
 0.4246408616226929    3    1    9    7
 -0.0001037886019101646    3    1    9    8
 -0.0003925729162080481    3    1    9    9
 -0.0001086607729368014    3    1   10    1
 0.0006144323400134807    3    1   10    2
 -0.0001030606936372885    3    1   10    3
 -0.0004595622410316635    3    1   10    4
 0.002037085533720881    3    1   10    5
 0.0001789012009320162    3    1   10    6
 -0.0001930973332706729    3    1   10    7
 0.4427243888337324    3    1   10    8
 -0.2406562346388649    3    1   10    9
 0.001449126843787306    3    1   10   10
 0.0005771626904863339    3    1   11    1
 0.0001436904309628922    3    1   11    2
 0.0007371527430158481    3    1   11    3
 -0.001694848702035956    3    1   11    4
 0.0007081145815423552    3    1   11    5
 0.0001667886674327351    3    1   11    6
 2.034126546823257e-05    3    1   11    7
 -0.2404716645247775    3    1   11    8
 -0.4423544834179273    3    1   11    9
 -0.001689712436886572    3    1   11   10
 -0.001845462327683772    3    1   11   11
 -7.654466340035332e-05    3    1   12    1
 0.0002541127350261102    3    1   12    2
 -0.0003572466575546204    3    1   12    3
 -0.0006067077207334362    3    1   12    4
 0.0001236561151297666    3    1   12    5
 0.001050136460177417    3    1   12    6
 -0.002045710014043745    3    1   12    7
 0.0001295364778282626    3    1   12    8
 0.0001731541665545792    3    1   12    9
 -0.280644229248165    3    1   12   10
 -0.4215272706408488    3    1   12   11
 0.002347612622596848    3    1   12   12
 6.957572526736233e-06    3    1   13    1
 -0.000262208188463571    3    1   13    2
 0.0009068205854584066    3    1   13    3
 6.624235631895459e-05    3    1   13    4
 0.0006644844959839344    3    1   13    5
 -0.001165123635518302    3    1   13    6
 -0.0002546408180783329    3    1   13    7
 -0.0003845859153490602    3    1   13    8
 0.000279596102218645    3    1   13    9
 -0.4163668951048624    3    1   13   10
 0.2770903960175083    3    1   13   11
 -0.001080627511484682    3    1   13   12
 -0.004503763107064421    3    1   13   13
 -0.0005803538996953517    3    1   14    1
 6.86749752360008e-05    3    1   14    2
 -7.565634092154827e-06    3    1   14    3
 -0.0001599266535968827    3    1   14    4
 -0.0006663543827007679    3    1   14    5
 -0.000494624953786417    3    1   14    6
 -0.0006389585945088695    3    1   14    7
 -0.0018026495376623    3    1   14    8
 -0.0004285711000946296    3    1   14    9
 0.00182862198081174    3    1   14   10
 -0.0002684404610744304    3    1   14   11
 -0.0006564765501011691    3    1   14   12
 -0.7142412024252347    3    1   14   13
 0.003398740674665585    3    1   14   14
 -6.579075826761149e-06    3    2    1    1
 -0.002459744374899937    3    2    2    1
 -0.0002754077580386927    3    2    2    2
 0.001413847554396844    3    2    3    1
 0.3570406332050274    3    2    3    2
 0.0002761595973034062    3    2    3    3
 0.2890929310642285    3    2    4    1
 -4.168245737794229e-05    3    2    4    2
 0.001301384846316943    3    2    4    3
 -3.460426926740756e-06    3    2    4    4
 -0.414042749484741    3    2    5    1
 -0.001045678208176179    3    2    5    2
 -0.000417120579494043    3    2    5    3
 0.0001656727070997038    3    2    5    4
 3.392321636784545e-06    3    2    5    5
 0.0002511496771886029    3    2    6    1
 -0.3565669035335308    3    2    6    2
 0.03237073982603342    3    2    6    3
 0.0006011740891344181    3    2    6    4
 0.001054607553907051    3    2    6    5
 -0.0006495997547050214    3    2    6    6
 0.001263028881844899    3    2    7    1
 -0.03236701831598368    3    2    7    2
 -0.3546964524078221    3    2    7    3
 1.601654325070721e-05    3    2    7    4
 0.0008294215622956722    3    2    7    5
 0.0003778447408757692    3    2    7    6
 0.0006506844191211114    3    2    7    7
 -0.001073356063134814    3    2    8    1
 -0.0009536835909427915    3    2    8    2
 0.0002408894026155739    3    2    8    3
 0.3160362989279877    3    2    8    4
 -0.1671110905149667    3    2    8    5
 -0.0007216321344093862    3    2    8    6
 -0.0005466067818458882    3    2    8    7
 0.0001021000750842938    3    2    8    8
 0.001994439706432396    3    2    9    1
 -0.001060571842626286    3    2    9    2
 -0.0001332976821098592    3    2    9    3
 -0.166760048609219    3    2    9    4
 -0.3152931221788311    3    2    9    5
 -0.0002918849884834679    3    2    9    6
 0.0008555952782443063    3    2    9    7
 -0.0002448171113837994    3    2    9    8
 -9.999972681336159e-05    3    2    9    9
 0.0006144323400135016    3    2   10    1
 -0.0005559669489196978    3    2   10    2
 -0.001047311149154358    3    2   10    3
 -0.0004105730784942224    3    2   10    4
 -8.866243049899386e-05    3    2   10    5
 0.3123141403596804    3    2   10    6
 -0.1734362158124614    3    2   10    7
 0.001230034365505728    3    2   10    8
 -0.00143483671445699    3    2   10    9
 -0.002293217202131867    3    2   10   10
 0.0001436904309629061    3    2   11    1
 0.001211568956168974    3    2   11    2
 -0.0008585056060201046    3    2   11    3
 0.0002468880893765485    3    2   11    4
 -0.0005460979024192528    3    2   11    5
 0.1734186693708205    3    2   11    6
 0.3119727044100636    3    2   11    7
 0.0009914000495866923    3    2   11    8
 -0.0005770813309881068    3    2   11    9
 -0.0009179295108088723    3    2   11   10
 0.002296720761082449    3    2   11   11
 0.0002541127350261171    3    2   12    1
 0.0001701386405700001    3    2   12    2
 -0.0002727375633441789    3    2   12    3
 0.0001946602594144475    3    2   12    4
 0.001044579416102316    3    2   12    5
 0.0002293471512942596    3    2   12    6
 0.0001867949707933751    3    2   12    7
 0.3572243892762906    3    2   12    8
 0.03215741751730052    3    2   12    9
 -0.0001848753438838668    3    2   12   10
 -0.0006456718582864285    3    2   12   11
 0.000661432490063299    3    2   12   12
 -0.0002622081884635502    3    2   13    1
 -0.0002526830012100217    3    2   13    2
 -0.0003071424638237258    3    2   13    3
 0.001036294302389933    3    2   13    4
 -0.001009670357435571    3    2   13    5
 0.0004473811664494412    3    2   13    6
 -0.0003592297629824801    3    2   13    7
 -0.03192586022702739    3    2   13    8
 0.3540308677087641    3    2   13    9
 0.0001446285931395591    3    2   13   10
 0.002538803330840271    3    2   13   11
 0.3571291173316595    3    2   13   12
 -0.0006652348022890553    3    2   13   13
 6.867497523599386e-05    3    2   14    1
 -0.0003277668141174681    3    2   14    2
 0.0002877118532013251    3    2   14    3
 0.0003612428826226116    3    2   14    4
 -9.081047517073976e-05    3    2   14    5
 -0.0007101844631524357    3    2   14    6
 0.001118629191262018    3    2   14    7
 9.722824615603087e-05    3    2   14    8
 0.0001303677291528225    3    2   14    9
 0.2795560154298766    3    2   14   10
 0.4205661929312367    3    2   14   11
 -0.002276705688886271    3    2   14   12
 -0.001088760399172842    3    2   14   13
 3.009082444660471e-06    3    2   14   14
 0.7107832193024337    3    3    1    1
 0.001413847554396816    3    3    2    1
 0.3570406332050274    3    3    2    2
 0.004622331080436387    3    3    3    1
 0.0002761595973033715    3    3    3    2
 1.069634204025669    3    3    3    3
 0.41332739530973    3    3    4    1
 0.001301384846316943    3    3    4    2
 0.004927884676877384    3    3    4    3
 0.7161525143465687    3    3    4    4
 0.2880106864388304    3    3    5    1
 -0.0004171205794940847    3    3    5    2
 0.002267591781733608    3    3    5    3
 0.001453686350812597    3    3    5    4
 0.7143467667445134    3    3    5    5
 0.001028254639682105    3    3    6    1
 0.03237073982603342    3    3    6    2
 0.3548301838048693    3    3    6    3
 0.002154355414183177    3    3    6    4
 0.001671856295335311    3    3    6    5
 0.7153177786033565    3    3    6    6
 -0.0004593153659814622    3    3    7    1
 -0.3546964524078221    3    3    7    2
 0.03181883542613279    3    3    7    3
 -0.002127810979359738    3    3    7    4
 0.003115806191176618    3    3    7    5
 0.0007843158838506305    3    3    7    6
 0.7136367513697773    3    3    7    7
 0.001689947012499887    3    3    8    1
 0.0002408894026155808    3    3    8    2
 -0.001349162712936412    3    3    8    3
 -0.1670452883118704    3    3    8    4
 -0.3153197149902562    3    3    8    5
 -0.002518166074186409    3    3    8    6
 -0.00229276427131549    3    3    8    7
 0.7146327035653111    3    3    8    8
 0.0005184742037810802    3    3    9    1
 -0.00013329768210988    3    3    9    2
 -0.001739697550866383    3    3    9    3
 -0.3147139002945904    3    3    9    4
 0.1655644781987563    3    3    9    5
 -0.001856753436596321    3    3    9    6
 0.002509928545171832    3    3    9    7
 -0.0004515378750366891    3    3    9    8
 0.7135537866967658    3    3    9    9
 -0.0001030606936372538    3    3   10    1
 -0.001047311149154344    3    3   10    2
 0.0003539176045513903    3    3   10    3
 0.0005741129662516428    3    3   10    4
 -0.001071298808069755    3    3   10    5
 -0.1734080103138156    3    3   10    6
 -0.3115815889744567    3    3   10    7
 0.00396295011837542    3    3   10    8
 -0.001570570761500205    3    3   10    9
 0.7123583890107386    3    3   10   10
 0.0007371527430158099    3    3   11    1
 -0.0008585056060201324    3    3   11    2
 0.0001336626979262755    3    3   11    3
 0.001322654148825389    3    3   11    4
 0.0005976398854923258    3    3   11    5
 0.3114800433227651    3    3   11    6
 -0.1721147662346068    3    3   11    7
 -0.002330674402740714    3    3   11    8
 -0.001275953644436523    3    3   11    9
 0.002699397300268757    3    3   11   10
 0.7142793182310254    3    3   11   11
 -0.0003572466575546204    3    3   12    1
 -0.0002727375633441789    3    3   12    2
 -0.00035560691203744    3    3   12    3
 0.000793986392629599    3    3   12    4
 -0.001061811324696016    3    3   12    5
 -0.001177047240877679    3    3   12    6
 0.0009840545983889754    3    3   12    7
 -0.03194872605691892    3    3   12    8
 0.3560340790844542    3    3   12    9
 -0.001264000527282025    3    3   12   10
 -0.002739928557868115    3    3   12   11
 0.3590953557909766    3    3   12   12
 0.0009068205854583788    3    3   13    1
 -0.0003071424638237119    3    3   13    2
 0.000287619055331173    3    3   13    3
 0.0001265181561809284    3    3   13    4
 0.0002900625264685569    3    3   13    5
 0.0007611580823803435    3    3   13    6
 0.001087559375752786    3    3   13    7
 -0.3536265542995725    3    3   13    8
 -0.03129667613204491    3    3   13    9
 -0.003500588990896215    3    3   13   10
 0.001139043245276774    3    3   13   11
 0.0006558859654571328    3    3   13   12
 1.07138527816857    3    3   13   13
 -7.565634092099316e-06    3    3   14    1
 0.000287711853201339    3    3   14    2
 -0.0009818101943747763    3    3   14    3
 -2.740057100958371e-05    3    3   14    4
 -0.0004813566613515209    3    3   14    5
 0.0001250458612409716    3    3   14    6
 -0.0003765948399976887    3    3   14    7
 0.002505049602780439    3    3   14    8
 -0.0008384751262183864    3    3   14    9
 0.4196872312799947    3    3   14   10
 -0.2786246782183593    3    3   14   11
 0.0002688827891717607    3    3   14   12
 -0.004520297589675634    3    3   14   13
 0.7177833009392733    3    3   14   14
 -0.004046670192411408    4    1    1    1
 -0.0009834269713458604    4    1    2    1
 -0.4155819015988935    4    1    2    2
 -0.0014237277207413    4    1    3    1
 0.2890929310642285    4    1    3    2
 0.41332739530973    4    1    3    3
 0.7144296804397712    4    1    4    1
 -0.001130579688176508    4    1    4    2
 -0.0004441709705145722    4    1    4    3
 0.001589583314594425    4    1    4    4
 -1.201025398176597e-05    4    1    5    1
 0.001214655434559446    4    1    5    2
 -0.0008033176956843066    4    1    5    3
 0.001723614703979075    4    1    5    4
 0.0006583216341295994    4    1    5    5
 -0.001616191549207002    4    1    6    1
 -0.2512564185007786    4    1    6    2
 0.4383797168725955    4    1    6    3
 -0.001737160583109243    4    1    6    4
 -0.0004389919610518905    4    1    6    5
 3.329322393140488e-05    4    1    6    6
 0.00182444186208985    4    1    7    1
 -0.438950461690337    4    1    7    2
 -0.2494003924407258    4    1    7    3
 0.0006820176925824671    4    1    7    4
 -0.0003239281603752212    4    1    7    5
 0.001247514204514674    4    1    7    6
 0.000412300837776396    4    1    7    7
 0.001150381030966083    4    1    8    1
 -0.002409156434494727    4    1    8    2
 -2.395221588093188e-05    4    1    8    3
 0.06203495100565161    4    1    8    4
 -0.5018471693216067    4    1    8    5
 0.0009654378789955148    4    1    8    6
 0.000304594572202322    4    1    8    7
 -0.0001656074870443336    4    1    8    8
 0.00306283604192565    4    1    9    1
 0.0002296129977061023    4    1    9    2
 -0.0001564431064483111    4    1    9    3
 -0.500738277898103    4    1    9    4
 -0.06187225120090328    4    1    9    5
 0.001003885587229997    4    1    9    6
 -0.00093958123594012    4    1    9    7
 -0.0006886863680359741    4    1    9    8
 -0.0002795139271824882    4    1    9    9
 0.0004257393869779025    4    1   10    1
 -0.001606397297716583    4    1   10    2
 -0.0004595622410316566    4    1   10    3
 -0.0008614927576804515    4    1   10    4
 0.00071155210947315    4    1   10    5
 0.05162999511485963    4    1   10    6
 -0.5024783060920373    4    1   10    7
 0.00083305285591459    4    1   10    8
 6.952010049935883e-05    4    1   10    9
 -0.004709958592349808    4    1   10   10
 0.0009107458588871464    4    1   11    1
 0.0004646315544254154    4    1   11    2
 -0.001694848702035956    4    1   11    3
 -0.0002938346654088181    4    1   11    4
 -0.0008708071269966436    4    1   11    5
 0.5025035600993227    4    1   11    6
 0.05156685187143204    4    1   11    7
 0.001211345727914689    4    1   11    8
 0.002745202285359563    4    1   11    9
 0.002495570871860704    4    1   11   10
 0.002458296188163407    4    1   11   11
 0.0003193777220308058    4    1   12    1
 -8.676322863496178e-05    4    1   12    2
 -0.0006067077207334362    4    1   12    3
 0.001021104735119724    4    1   12    4
 9.73640668276432e-05    4    1   12    5
 0.0007384949416462255    4    1   12    6
 5.486682563383624e-05    4    1   12    7
 0.2522664541944638    4    1   12    8
 0.4403214247287801    4    1   12    9
 0.0009492777908804845    4    1   12   10