 &FCI NORB=  16,NELEC=10,MS2=0,
  ORBSYM=1,1,1,1,1,1,1,1,1,1,1,1,1,1,1,1
  ISYM=1,
 &END
 0.13465    1    1    1    1
 0.1346499999999999    1    1    2    2
 0.1346500000000001    1    1    3    3
 0.13465    1    1    4    4
 0.13465    1    1    5    5
 0.13465    1    1    6    6
 0.13465    1    1    7    7
 0.13465    1    1    8    8
 0.1346499999999999    1    1    9    9
 0.1346500000000001    1    1   10   10
 0.1346499999999999    1    1   11   11
 0.1346499999999999    1    1   12   12
 0.1346500000000001    1    1   13   13
 0.1346499999999999    1    1   14   14
 0.1346499999999999    1    1   15   15
 0.13465    1    1   16   16
 0.1346499999999999    2    1    2    1
 -0.05903344201767816    2    1    6    2
 -0.02951698009445244    2    1    6    3
 -0.03364599462696356    2    1    6    4
 -0.02162141792096944    2    1    6    5
 -0.008121876018014566    2    1    7    2
 0.03823504180550725    2    1    7    3
 0.07671634255825294    2    1    7    4
 0.0182877537432349    2    1    7    5
 -0.07339983298345824    2    1    8    2
 -0.009321954013047362    2    1    8    3
 0.0126290939424983    2    1    8    4
 -0.07207058055219105    2    1    8    5
 0.01051840866602621    2    1    9    2
 -0.006066320215071834    2    1    9    3
 -0.02134749285572517    2    1    9    4
 -0.01538444253603238    2    1    9    5
 0.1185952850808832    2    1   10    2
 -0.01328560773193453    2    1   10    3
 -0.04438648638517918    2    1   10    4
 -0.02851376505259586    2    1   10    5
 -0.004237101672463436    2    1   11    2
 0.08655330184233267    2    1   11    3
 -0.04966896598547417    2    1   11    4
 -0.04493883787287573    2    1   11    5
 0.03767327983512717    2    1   12    6
 -0.01449445544934107    2    1   12    7
 -0.06168651526292813    2    1   12    8
 0.0251997734398088    2    1   12    9
 0.09314889123645309    2    1   12   10
 -0.02317341951961085    2    1   12   11
 -0.02246614445317576    2    1   13    6
 0.07823520142286948    2    1   13    7
 0.02027131485407126    2    1   13    8
 0.02476231453919953    2    1   13    9
 -0.06080231843466931    2    1   13   10
 -0.07667303510319559    2    1   13   11
 -0.03500367210773864    2    1   14    6
 -0.02664155440589246    2    1   14    7
 0.03680080085225163    2    1   14    8
 0.02124553936658516    2    1   14    9
 0.03874923289605847    2    1   14   10
 0.0451283687602279    2    1   14   11
 0.08507080170253678    2    1   15    6
 0.01203440846110113    2    1   15    7
 0.08177647412946863    2    1   15    8
 -0.00521581540640989    2    1   15    9
 -0.01890922050473814    2    1   15   10
 0.01226693479839662    2    1   15   11
 -0.06419173372000764    2    1   16   12
 0.1168532904526733    2    1   16   13
 -0.004008960809291917    2    1   16   14
 0.01841957018044595    2    1   16   15
 0.1346499999999999    2    2    1    1
 0.3064426418371361    2    2    2    2
 0.0008171178606460927    2    2    3    2
 0.07519384356446446    2    2    3    3
 -0.03595939352084328    2    2    4    2
 0.001699532525889046    2    2    4    3
 0.08963851459839911    2    2    4    4
 0.02276135836950248    2    2    5    2
 -0.0104581100465038    2    2    5    3
 0.03747767018832791    2    2    5    4
 0.06732500000000005    2    2    5    5
 -0.05903344201767816    2    2    6    1
 0.1213668034249308    2    2    6    6
 -0.008121876018014566    2    2    7    1
 -0.02950682130677534    2    2    7    6
 0.1109035115709612    2    2    7    7
 -0.07339983298345824    2    2    8    1
 0.06409822383600897    2    2    8    6
 0.0176332098906398    2    2    8    7
 0.1714514663139275    2    2    8    8
 0.01051840866602621    2    2    9    1
 -0.001376371588134606    2    2    9    6
 -0.009604006410238685    2    2    9    7
 -0.004259435081531958    2    2    9    8
 0.01906136027682029    2    2    9    9
 0.1185952850808832    2    2   10    1
 -0.01922592966210347    2    2   10    6
 -0.09479939651218078    2    2   10    7
 -0.10535078959357    2    2   10    8
 0.03325538198381334    2    2   10    9
 0.2321369738066127    2    2   10   10
 -0.004237101672463443    2    2   11    1
 0.004838989115531148    2    2   11    6
 -0.05945620732704757    2    2   11    7
 0.03456948980497897    2    2   11    8
 -0.003013241828936477    2    2   11    9
 0.0434730360784099    2    2   11   10
 0.1529798846067472    2    2   11   11
 0.1027240079321623    2    2   12    2
 -0.03332569032008038    2    2   12    3
 -0.04961058720272955    2    2   12    4
 0.01012876854283103    2    2   12    5
 0.144106364558505    2    2   12   12
 -0.05512521792898013    2    2   13    2
 -0.01866493915310109    2    2   13    3
 0.09648927550594594    2    2   13    4
 0.03901876180479205    2    2   13    5
 -0.1039340474478928    2    2   13   12
 0.2293348722176209    2    2   13   13
 0.03126124109906461    2    2   14    2
 0.02178853578181908    2    2   14    3
 -0.03576909907505746    2    2   14    4
 -0.04338948380684221    2    2   14    5
 0.00114172230098852    2    2   14   12
 -0.04686559920906624    2    2   14   13
 0.05417635241214216    2    2   14   14
 -0.1000484699635541    2    2   15    2
 -0.01090685910267935    2    2   15    3
 -0.004195474842736632    2    2   15    4
 -0.05528996164148808    2    2   15    5
 -0.03990718945240794    2    2   15   12
 0.02168905422657598    2    2   15   13
 -0.004847777469467256    2    2   15   14
 0.1109824108117315    2    2   15   15
 -0.0247772751485078    2    2   16    6
 0.07724425190383824    2    2   16    7
 0.05709089298435484    2    2   16    8
 0.00812993073937825    2    2   16    9
 -0.1009133581063621    2    2   16   10
 -0.05515722733713956    2    2   16   11
 0.13465    2    2   16   16
 0.1346500000000001    3    1    3    1
 -0.02951698009445244    3    1    6    2
 -0.001189791510179746    3    1    6    3
 0.07662495423973201    3    1    6    4
 0.06805986599810124    3    1    6    5
 0.03823504180550725    3    1    7    2
 0.007697625766552745    3    1    7    3
 0.08881032891245146    3    1    7    4
 -0.01707022840848031    3    1    7    5
 -0.009321954013047357    3    1    8    2
 0.1236711086119171    3    1    8    3
 -0.01332632313486538    3    1    8    4
 0.003056186167886556    3    1    8    5
 -0.006066320215071832    3    1    9    2
 -0.05571468668082624    3    1    9    3
 0.02510681655055623    3    1    9    4
 0.009689156381413919    3    1    9    5
 -0.01328560773193453    3    1   10    2
 0.01387678042799908    3    1   10    3
 0.0365853534589306    3    1   10    4
 0.01970905677780614    3    1   10    5
 0.08655330184233267    3    1   11    2
 -0.001004941491374353    3    1   11    3
 0.02537129206371377    3    1   11    4
 -0.06041610917674001    3    1   11    5
 0.005977577835117107    3    1   12    6
 -0.01992193797331801    3    1   12    7
 -0.005033482370212221    3    1   12    8
 -0.07146667355338845    3    1   12    9
 -0.03626264963630266    3    1   12   10
 -0.09124337745637599    3    1   12   11
 -0.07734993586539789    3    1   13    6
 -0.0574782347027017    3    1   13    7
 0.02326200158293768    3    1   13    8
 -0.04991607048494882    3    1   13    9
 -0.04471392199009308    3    1   13   10
 0.002589770761525504    3    1   13   11
 -0.06633671778540898    3    1   14    6
 -0.02900586900385769    3    1   14    7
 0.02929433336051213    3    1   14    8
 0.02706878490881996    3    1   14    9
 0.006854359105726295    3    1   14   10
 0.03900226205448964    3    1   14   11
 -0.02821424596304833    3    1   15    6
 0.07234228743218203    3    1   15    7
 -0.04689702654591199    3    1   15    8
 -0.05222632551574939    3    1   15    9
 -0.04372528817162882    3    1   15   10
 0.05992790038706005    3    1   15   11
 -0.1009681812175589    3    1   16   12
 -0.04418780456662418    3    1   16   13
 0.04721997041186006    3    1   16   14
 -0.06126794597098129    3    1   16   15
 0.0008171178606460918    3    2    2    2
 0.07519384356446444    3    2    3    2
 -0.005620331432678492    3    2    3    3
 0.001699532525889046    3    2    4    2
 0.02091170603547333    3    2    4    3
 0.00480321357203242    3    2    4    4
 -0.0104581100465038    3    2    5    2
 -0.0611951748213207    3    2    5    3
 -0.01219279479305924    3    2    5    4
 -0.02951698009445244    3    2    6    1
 -0.002876313628641988    3    2    6    6
 0.03823504180550725    3    2    7    1
 0.01936080058896296    3    2    7    6
 0.02911326180564961    3    2    7    7
 -0.009321954013047359    3    2    8    1
 -0.06271819134219037    3    2    8    6
 0.03257234450993272    3    2    8    7
 -0.02103346618983193    3    2    8    8
 -0.006066320215071834    3    2    9    1
 -0.04465649200370633    3    2    9    6
 -0.0311673091797376    3    2    9    7
 0.005238349277641675    3    2    9    8
 -0.01931186314792755    3    2    9    9
 -0.01328560773193453    3    2   10    1
 -0.04161641613201602    3    2   10    6
 0.0009223775076476798    3    2   10    7
 -0.01563719355410428    3    2   10    8
 -0.02194939499451128    3    2   10    9
 -0.02608651924221303    3    2   10   10
 0.08655330184233266    3    2   11    1
 -0.03260277918098995    3    2   11    6
 0.009709386495812    3    2   11    7
 0.07685110688349601    3    2   11    8
 -0.003080419702823454    3    2   11    9
 0.01928070806981194    3    2   11   10
 0.04019490040296488    3    2   11   11
 -0.03332569032008038    3    2   12    2
 -0.05847262392331506    3    2   12    3
 0.04362526570617846    3    2   12    4
 0.04532510763662453    3    2   12    5
 0.0314996262170612    3    2   12   12
 -0.01866493915310109    3    2   13    2
 0.007349559651357194    3    2   13    3
 0.01045985294131935    3    2   13    4
 0.006470652986294227    3    2   13    5
 -0.04576539076059395    3    2   13   12
 -0.04579946779932581    3    2   13   13
 0.02178853578181907    3    2   14    2
 0.02745221576472179    3    2   14    3
 -0.01814030509802718    3    2   14    4
 -0.02652815436396405    3    2   14    5
 -0.04827409690536537    3    2   14   12
 0.0192781053585996    3    2   14   13
 0.0488996853303241    3    2   14   14
 -0.01090685910267935    3    2   15    2
 0.07516285137307138    3    2   15    3
 0.04445615515291325    3    2   15    4
 0.0346829644886866    3    2   15    5
 -0.01532464528787099    3    2   15   12
 -0.03747453796771599    3    2   15   13
 -0.01871062424108542    3    2   15   14
 -0.03459984374805954    3    2   15   15
 -0.07186081387778248    3    2   16    6
 -0.02962421005870766    3    2   16    7
 0.01529956540201474    3    2   16    8
 -0.01719860059412387    3    2   16    9
 -0.02770209012488862    3    2   16   10
 0.05278263238984235    3    2   16   11
 0.1346500000000001    3    3    1    1
 0.07519384356446444    3    3    2    2
 -0.00562033143267849    3    3    3    2
 0.2731788778757581    3    3    3    3
 0.02091170603547333    3    3    4    2
 -0.01464722142280566    3    3    4    3
 0.122902278559778    3    3    4    4
 -0.0611951748213207    3    3    5    2
 -0.0002972948612249973    3    3    5    3
 0.0229471646694773    3    3    5    4
 0.06732500000000009    3    3    5    5
 -0.001189791510179743    3    3    6    1
 0.1677797586826212    3    3    6    6
 0.007697625766552743    3    3    7    1
 0.06472686432500099    3    3    7    6
 0.1446358495990142    3    3    7    7
 0.1236711086119171    3    3    8    1
 -0.02327991258458553    3    3    8    6
 -0.04544570485772928    3    3    8    7
 0.1425348594311934    3    3    8    8
 -0.05571468668082625    3    3    9    1
 0.04411644236111296    3    3    9    6
 0.008414767766797143    3    3    9    7
 -0.03488983943999177    3    3    9    8
 0.1108397048373052    3    3    9    9
 0.01387678042799908    3    3   10    1
 0.06343278038250576    3    3   10    6
 0.01813633286910305    3    3   10    7
 0.02084265066894679    3    3   10    8
 0.05725677459448052    3    3   10    9
 0.05472859307436331    3    3   10   10
 -0.001004941491374357    3    3   11    1
 -0.07237482497965537    3    3   11    6
 0.08510285460560968    3    3   11    7
 -0.01932608189252653    3    3   11    8
 0.02896443001509862    3    3   11    9
 -0.004355638991124152    3    3   11   10
 0.1873812343755032    3    3   11   11
 -0.05847262392331506    3    3   12    2
 0.02070010185593106    3    3   12    3
 -0.04961091213037314    3    3   12    4
 0.03592229763196696    3    3   12    5
 0.1886397603387983    3    3   12   12
 0.007349559651357194    3    3   13    2
 0.03478939667746418    3    3   13    3
 -0.1051986305979089    3    3   13    4
 -0.04258109454735061    3    3   13    5
 0.07411561321128737    3    3   13   12
 0.1208919321052696    3    3   13   13
 0.02745221576472179    3    3   14    2
 0.01504868768372633    3    3   14    3
 -0.04552199431435654    3    3   14    4
 -0.04373710105703566    3    3   14    5
 -0.07779887238373055    3    3   14   12
 0.02849312500178382    3    3   14   13
 0.07895033001486068    3    3   14   14
 0.0751628513730714    3    3   15    2
 -0.02203186952522037    3    3   15    3
 0.0259732516295455    3    3   15    4
 -0.06154405501859012    3    3   15    5
 0.0346255443010867    3    3   15   12
 0.03236466432179593    3    3   15   13
 -0.0287388525045557    3    3   15   14
 0.1501179775410716    3    3   15   15
 0.0104759727693431    3    3   16    6
 -0.009287788997936048    3    3   16    7
 0.02775259430723204    3    3   16    8
 0.103227096369244    3    3   16    9
 0.06416490942177623    3    3   16   10
 0.05397896682342913    3    3   16   11
 0.1346500000000001    3    3   16   16
 0.13465    4    1    4    1
 -0.03364599462696355    4    1    6    2
 0.07662495423973201    4    1    6    3
 0.05548904890260353    4    1    6    4
 -0.04315550695560678    4    1    6    5
 0.07671634255825294    4    1    7    2
 0.08881032891245146    4    1    7    3
 0.008677091429295125    4    1    7    4
 0.04621566723905243    4    1    7    5
 0.01262909394249831    4    1    8    2
 -0.01332632313486538    4    1    8    3
 -0.05027127562845871    4    1    8    4
 0.02997482353486667    4    1    8    5
 -0.02134749285572517    4    1    9    2
 0.02510681655055623    4    1    9    3
 -0.09457634331147823    4    1    9    4
 0.02879716891107093    4    1    9    5
 -0.04438648638517917    4    1   10    2
 0.0365853534589306    4    1   10    3
 -0.04548862153430976    4    1   10    4
 0.03869902715437556    4    1   10    5
 -0.04966896598547417    4    1   11    2
 0.02537129206371377    4    1   11    3
 0.003537150108332189    4    1   11    4
 -0.04291437853586486    4    1   11    5
 0.06898455938745293    4    1   12    6
 0.03061248190828841    4    1   12    7
 -0.05017645070972984    4    1   12    8
 -0.001961721724354786    4    1   12    9
 -0.04845385808988598    4    1   12   10
 0.06489072396579933    4    1   12   11
 -0.0381009676156841    4    1   13    6
 0.00549040101202475    4    1   13    7
 -0.09934042296503955    4    1   13    8
 0.04175296955910868    4    1   13    9
 0.02566943275817788    4    1   13   10
 -0.002979181241993649    4    1   13   11
 0.03324975991281996    4    1   14    6
 -0.1042213096786138    4    1   14    7
 -0.04248003954102045    4    1   14    8
 -0.01354413849041634    4    1   14    9
 -0.05574941948752445    4    1   14   10
 0.0150765083487857    4    1   14   11
 0.01894872293659062    4    1   15    6
 0.06812671783453593    4    1   15    7
 0.009311698825331212    4    1   15    8
 -0.02912443766557778    4    1   15    9
 0.01937622154599801    4    1   15   10
 0.04746268853081104    4    1   15   11
 0.06127093793727973    4    1   16   12
 0.05009043786400286    4    1   16   13
 0.05940457510401136    4    1   16   14
 -0.09131560192864285    4    1   16   15
 -0.03595939352084326    4    2    2    2
 0.001699532525889044    4    2    3    2
 0.02091170603547334    4    2    3    3
 0.08963851459839911    4    2    4    2
 0.004803213572032417    4    2    4    3
 0.01504768748536999    4    2    4    4
 0.03747767018832791    4    2    5    2
 -0.01219279479305924    4    2    5    3
 0.03843381645181818    4    2    5    4
 -0.03364599462696356    4    2    6    1
 0.02000428105698808    4    2    6    6
 0.07671634255825294    4    2    7    1
 0.01509251697676326    4    2    7    6
 0.05841630368664464    4    2    7    7
 0.0126290939424983    4    2    8    1
 0.0245951629840106    4    2    8    6
 -0.07219757346456775    4    2    8    7
 -0.02464390484725798    4    2    8    8
 -0.02134749285572517    4    2    9    1
 0.0004689244463578595    4    2    9    6
 -0.01700888341741941    4    2    9    7
 -0.0285905234508052    4    2    9    8
 0.01520766554458501    4    2    9    9
 -0.04438648638517918    4    2   10    1
 0.02548723474651185    4    2   10    6
 0.02529773302198935    4    2   10    7
 0.0192764269021696    4    2   10    8
 -0.01621975171140891    4    2   10    9
 -0.09977929607214814    4    2   10   10
 -0.04966896598547418    4    2   11    1
 0.06694123883160069    4    2   11    6
 -0.001070045005925733    4    2   11    7
 0.051389553009965    4    2   11    8
 0.01145612839636435    4    2   11    9
 0.005580627052937565    4    2   11   10
 0.03079495063118833    4    2   11   11
 -0.04961058720272955    4    2   12    2
 0.04362526570617846    4    2   12    3
 -0.01215551714884364    4    2   12    4
 0.008764973424068699    4    2   12    5
 -0.0352715340141433    4    2   12   12
 0.09648927550594594    4    2   13    2
 0.01045985294131935    4    2   13    3
 -0.01065098694871354    4    2   13    4
 0.05082308658224369    4    2   13    5
 0.0364640629075291    4    2   13   12
 0.0358452133145575    4    2   13   13
 -0.03576909907505745    4    2   14    2
 -0.01814030509802718    4    2   14    3
 -0.05670897645914037    4    2   14    4
 0.01156446056866767    4    2   14    5
 -0.03203311181765216    4    2   14   12
 -0.006846841197868514    4    2   14   13
 -0.01452890923927832    4    2   14   14
 -0.004195474842736632    4    2   15    2
 0.04445615515291324    4    2   15    3
 0.01567583350025977    4    2   15    4
 -0.01538995183708003    4    2   15    5
 0.03702022240395928    4    2   15   12
 -0.0825546341887433    4    2   15   13
 0.003746343438600857    4    2   15   14
 0.01395522993886425    4    2   15   15
 -0.06435003011335591    4    2   16    6
 0.002593294788753794    4    2   16    7
 -0.05975138233747948    4    2   16    8
 0.03358883397379318    4    2   16    9
 0.04968654844800863    4    2   16   10
 -0.02747697002197014    4    2   16   11
 0.001699532525889043    4    3    2    2
 0.02091170603547334    4    3    3    2
 -0.01464722142280568    4    3    3    3
 0.004803213572032419    4    3    4    2
 0.122902278559778    4    3    4    3
 0.01294768889691663    4    3    4    4
 -0.01219279479305924    4    3    5    2
 0.02294716466947729    4    3    5    3
 0.01075540490772873    4    3    5    4
 0.07662495423973201    4    3    6    1
 0.02106061902253156    4    3    6    6
 0.08881032891245146    4    3    7    1
 0.04597159511588274    4    3    7    6
 0.07890544615409774    4    3    7    7
 -0.01332632313486538    4    3    8    1
 0.05770840437613204    4    3    8    6
 0.02985021625982183    4    3    8    7
 -0.03522970149993105    4    3    8    8
 0.02510681655055623    4    3    9    1
 -0.04610362419643089    4    3    9    6
 -0.1009191565604537    4    3    9    7
 0.04903503571043864    4    3    9    8
 -0.03085269791174047    4    3    9    9
 0.0365853534589306    4    3   10    1
 0.009590014794364216    4    3   10    6
 -0.02679032940377924    4    3   10    7
 0.02942422783310202    4    3   10    8
 -0.02135678774978948    4    3   10    9
 -0.003150246985042153    4    3   10   10
 0.02537129206371377    4    3   11    1
 -0.02179534178584112    4    3   11    6
 0.009042991157347226    4    3   11    7
 0.009226033134023762    4    3   11    8
 -0.05940406614332819    4    3   11    9
 -0.02893663891434292    4    3   11   10
 -0.03073341877991565    4    3   11   11
 0.04362526570617845    4    3   12    2
 -0.04961091213037314    4    3   12    3
 0.06310967907292897    4    3   12    4
 -0.00650028293744092    4    3   12    5
 -0.07541728995404016    4    3   12   12
 0.01045985294131935    4    3   13    2
 -0.1051986305979089    4    3   13    3
 0.005969444758949272    4    3   13    4
 -0.01411073210488982    4    3   13    5
 -0.06340586707066785    4    3   13   12
 -0.03811626656942647    4    3   13   13
 -0.01814030509802718    4    3   14    2
 -0.04552199431435654    4    3   14    3
 -0.0604472086714755    4    3   14    4
 0.01315532960880156    4    3   14    5
 -0.01407472135891375    4    3   14   12
 0.02237914345220349    4    3   14   13
 0.01646695560525497    4    3   14   14
 0.04445615515291324    4    3   15    2
 0.0259732516295455    4    3   15    3
 0.06357270161339033    4    3   15    4
 -0.01940325256352617    4    3   15    5
 0.03696463967333519    4    3   15   12
 -0.00311573077366508    4    3   15   13
 -0.04512892753777772    4    3   15   14
 0.09706660091821166    4    3   15   15
 -0.03618673625293718    4    3   16    6
 -0.09230454225416362    4    3   16    7
 0.05109131298112728    4    3   16    8
 -0.003728629259805345    4    3   16    9
 -0.0004575208854527671    4    3   16   10
 -0.06399022693373246    4    3   16   11
 0.13465    4    4    1    1
 0.08963851459839911    4    4    2    2
 0.004803213572032418    4    4    3    2
 0.122902278559778    4    4    3    3
 0.01504768748536999    4    4    4    2
 0.01294768889691663    4    4    4    3
 0.2587342068418233    4    4    4    4
 0.03843381645181818    4    4    5    2
 0.01075540490772873    4    4    5    3
 -0.06042483485780507    4    4    5    4
 0.06732499999999998    4    4    5    5
 0.05548904890260353    4    4    6    1
 0.145711271427478    4    4    6    6
 0.008677091429295125    4    4    7    1
 0.01811431490777679    4    4    7    6
 0.2410282300554498    4    4    7    7
 -0.0502712756284587    4    4    8    1
 -0.04783937411700688    4    4    8    6
 0.027587799165803    4    4    8    7
 0.1339787110024611    4    4    8    8
 -0.09457634331147823    4    4    9    1
 -0.04884521920487171    4    4    9    6
 0.005190484511788947    4    4    9    7
 0.009419343185940378    4    4    9    8
 0.101291234429285    4    4    9    9
 -0.04548862153430974    4    4   10    1
 -0.04236551355437166    4    4   10    6
 0.05217778929955621    4    4   10    7
 0.0358600192410109    4    4   10    8
 0.06416811139744867    4    4   10    9
 0.0992618605988886    4    4   10   10
 0.003537150108332187    4    4   11    1
 0.08655117727180792    4    4   11    6
 0.0009096166222803963    4    4   11    7
 -0.0415007318476094    4    4   11    8
 -0.01270889487995131    4    4   11    9
 -0.01359327928463546    4    4   11   10
 0.08662869248643763    4    4   11   11
 -0.01215551714884364    4    4   12    2
 0.06310967907292897    4    4   12    3
 0.0685860303644628    4    4   12    4
 -0.05779927147725188    4    4   12    5
 0.1376177370718931    4    4   12   12
 -0.01065098694871354    4    4   13    2
 0.005969444758949269    4    4   13    3
 -0.01633586384003859    4    4   13    4
 0.009237999069462191    4    4   13    5
 0.0302586134220604    4    4   13   12
 0.1208355410531589    4    4   13   13
 -0.05670897645914038    4    4   14    2
 -0.06044720867147548    4    4   14    3
 0.05158880583740817    4    4   14    4
 -0.07960920482912746    4    4   14    5
 0.06372587120446351    4    4   14   12
 0.02461969428930771    4    4   14   13
 0.154621817992685    4    4   14   14
 0.01567583350025979    4    4   15    2
 0.06357270161339033    4    4   15    3
 0.02388002417751284    4    4   15    4
 0.003596021515484988    4    4   15    5
 -0.003500585091675438    4    4   15   12
 -0.04981094212575691    4    4   15   13
 -0.0910547137149582    4    4   15   14
 0.1255249038822629    4    4   15   15
 0.019035487004419    4    4   16    6
 -0.07620930408373548    4    4   16    7
 -0.084843487291587    4    4   16    8
 0.028415594217656    4    4   16    9
 -0.05023499528998658    4    4   16   10
 0.002883153569216118    4    4   16   11
 0.1346500000000001    4    4   16   16
 0.13465    5    1    5    1
 -0.02162141792096944    5    1    6    2
 0.06805986599810122    5    1    6    3
 -0.04315550695560678    5    1    6    4
 0.004734184625254281    5    1    6    5
 0.0182877537432349    5    1    7    2
 -0.01707022840848031    5    1    7    3
 0.04621566723905243    5    1    7    4
 -0.00825284117783325    5    1    7    5
 -0.07207058055219104    5    1    8    2
 0.003056186167886554    5    1    8    3
 0.02997482353486667    5    1    8    4
 -0.01538444253603238    5    1    9    2
 0.009689156381413917    5    1    9    3
 0.02879716891107093    5    1    9    4
 0.1397726213262782    5    1    9    5
 -0.02851376505259585    5    1   10    2
 0.01970905677780614    5    1   10    3
 0.03869902715437556    5    1   10    4
 -0.08698344397457258    5    1   10    5
 -0.04493883787287573    5    1   11    2
 -0.06041610917674001    5    1   11    3
 -0.04291437853586486    5    1   11    4
 0.001704893055505599    5    1   11    5
 -0.06008959664531151    5    1   12    6
 0.02463176527461241    5    1   12    7
 0.04570622732643571    5    1   12    8
 0.02130267650299537    5    1   12    9
 0.01136442517464587    5    1   12   10
 0.04729859120763292    5    1   12   11
 -0.05728586132217127    5    1   13    6
 0.03889691823298044    5    1   13    7
 -0.05239716749874545    5    1   13    8
 -0.009745792703824996    5    1   13    9
 -0.01437244709219301    5    1   13   10
 -0.03518490009046342    5    1   13   11
 0.009380381703320777    5    1   14    6
 0.007045591135543101    5    1   14    7
 0.01644175870229379    5    1   14    8
 0.1319466257042125    5    1   14    9
 -0.04697337223408299    5    1   14   10
 -0.03737458703319031    5    1   14   11
 -0.002005059583865774    5    1   15    6
 -0.02570014509165745    5    1   15    7
 -0.0315776043017386    5    1   15    8
 0.05232138087718162    5    1   15    9
 -0.08788060565852054    5    1   15   10
 0.05140196749509113    5    1   15   11
 -0.007832136868302555    5    1   16   12
 0.003783777551269152    5    1   16   13
 -0.1111571931286702    5    1   16   14
 -0.07549199676306219    5    1   16   15
 0.02276135836950248    5    2    2    2
 -0.0104581100465038    5    2    3    2
 -0.0611951748213207    5    2    3    3
 0.03747767018832791    5    2    4    2
 -0.01219279479305924    5    2    4    3
 0.03843381645181818    5    2    4    4
 0.06732500000000007    5    2    5    2
 -0.02162141792096944    5    2    6    1
 -0.006376415919231104    5    2    6    6
 0.0182877537432349    5    2    7    1
 -0.0321657580993224    5    2    7    6
 0.03551765267078788    5    2    7    7
 -0.07207058055219105    5    2    8    1
 0.02074299355576827    5    2    8    6
 -0.01914653598417171    5    2    8    7
 -0.0016250932939359    5    2    8    8
 -0.01538444253603238    5    2    9    1
 -0.01867725372679811    5    2    9    6
 0.009683739313455914    5    2    9    7
 -0.007784378288983636    5    2    9    8
 -0.001186749305765564    5    2    9    9
 -0.02851376505259586    5    2   10    1
 -0.02525549514807133    5    2   10    6
 0.009416843633209866    5    2   10    7
 -0.009214588581667713    5    2   10    8
 -0.003836138293741423    5    2   10    9
 -0.008220571333019171    5    2   10   10
 -0.04493883787287573    5    2   11    1
 0.1046910256233221    5    2   11    6
 -0.05220969916739543    5    2   11    7
 0.01777931310705235    5    2   11    8
 0.0003134923723084272    5    2   11    9
 0.0108003201589691    5    2   11   10
 -0.01810882281883614    5    2   11   11
 0.01012876854283103    5    2   12    2
 0.04532510763662453    5    2   12    3
 0.008764973424068699    5    2   12    4
 -0.03209586686000387    5    2   12    5
 -0.03296070946847885    5    2   12   12
 0.03901876180479204    5    2   13    2
 0.006470652986294232    5    2   13    3
 0.05082308658224369    5    2   13    4
 0.0584266452263367    5    2   13    5
 -0.003725505604013962    5    2   13   12
 0.05228645262391621    5    2   13   13
 -0.04338948380684222    5    2   14    2
 -0.02652815436396405    5    2   14    3
 0.01156446056866767    5    2   14    4
 -0.002004480404645914    5    2   14    5
 0.04595625992295185    5    2   14   12
 -0.02470329497018875    5    2   14   13
 -0.001254494186260242    5    2   14   14
 -0.05528996164148808    5    2   15    2
 0.0346829644886866    5    2   15    3
 -0.01538995183708003    5    2   15    4
 0.009209785090222966    5    2   15    5
 -0.007187570960250678    5    2   15   12
 -0.06483044672540718    5    2   15   13
 -0.0005836135416342073    5    2   15   14
 -0.01807124896917705    5    2   15   15
 -0.02162141792096947    5    2   16    6
 0.01828775374323489    5    2   16    7
 -0.07207058055219112    5    2   16    8
 -0.01538444253603238    5    2   16    9
 -0.02851376505259582    5    2   16   10
 -0.04493883787287575    5    2   16   11
 -0.0104581100465038    5    3    2    2
 -0.0611951748213207    5    3    3    2
 -0.0002972948612250007    5    3    3    3
 -0.01219279479305924    5    3    4    2
 0.02294716466947729    5    3    4    3
 0.01075540490772873    5    3    4    4
 0.06732500000000011    5    3    5    3
 0.06805986599810122    5    3    6    1
 0.008012002271896707    5    3    6    6
 -0.01707022840848031    5    3    7    1
 -0.001066543929559034    5    3    7    6
 0.00017177734135575    5    3    7    7
 0.003056186167886554    5    3    8    1
 0.06347467666999468    5    3    8    6
 -0.005422843714909143    5    3    8    7