 &FCI NORB=  16,NELEC= 8,MS2=2,
  ORBSYM=1,1,1,1,1,1,1,1,1,1,1,1,1,1,1,1
  ISYM=1,
 &END
 0.4841218516481301    1    1    1    1
 6.487865800153259e-15    1    1    2    1
 0.4920389624051119    1    1    2    2
 2.181414771040835e-15    1    1    3    1
 0.002148344323226265    1    1    3    2
 0.479298901108256    1    1    3    3
 0.002198345591892872    1    1    4    2
 0.002319826702880957    1    1    4    3
 0.4850995050408513    1    1    4    4
 1.297573160030652e-15    1    1    5    1
 -0.001175302033567523    1    1    5    2
 0.005183675727104672    1    1    5    3
 -0.002160538613287147    1    1    5    4
 0.4802604330098372    1    1    5    5
 0.001342094147542816    1    1    6    1
 4.364591370611959e-15    1    1    6    2
 3.943178926825788e-15    1    1    6    3
 -1.484083038752471e-15    1    1    6    4
 4.069227593772595e-15    1    1    6    5
 0.4934550745273863    1    1    6    6
 0.00477348753066955    1    1    7    1
 3.920475055707584e-15    1    1    7    2
 6.321332346459485e-15    1    1    7    4
 -2.071670368246315e-05    1    1    7    6
 0.4925353654959808    1    1    7    7
 -0.002857955634676371    1    1    8    1
 -3.126405384579201e-15    1    1    8    2
 -1.173689245182767e-05    1    1    8    6
 1.801491543332659e-05    1    1    8    7
 0.4882274183539903    1    1    8    8
 0.003421180007304764    1    1    9    1
 2.983724378680108e-15    1    1    9    2
 -1.370431546021678e-15    1    1    9    3
 -2.282896094385478e-15    1    1    9    5
 -1.095692057547588e-05    1    1    9    6
 5.190342887320676e-05    1    1    9    7
 2.27423049810895e-05    1    1    9    8
 0.481515437593257    1    1    9    9
 -0.0004506331180782648    1    1   10    1
 -2.605771501351661e-15    1    1   10    3
 1.321859288694327e-15    1    1   10    5
 1.501566375310353e-06    1    1   10    6
 -7.139027348202452e-06    1    1   10    7
 -3.028724920434714e-06    1    1   10    8
 -5.228466351045805e-06    1    1   10    9
 0.4760929189955996    1    1   10   10
 -0.00736504087621114    1    1   11    1
 -1.771044248755071e-15    1    1   11    2
 -1.422568117991074e-15    1    1   11    3
 -3.168389391424544e-05    1    1   11    6
 7.030136973659777e-05    1    1   11    7
 6.417413740422797e-05    1    1   11    8
 4.874347091029277e-05    1    1   11    9
 -5.652663952383283e-06    1    1   11   10
 0.4716666378500549    1    1   11   11
 -0.0004253855527224411    1    1   12    2
 0.001995794838029565    1    1   12    3
 -0.004373177976046354    1    1   12    4
 -0.002045074577952683    1    1   12    5
 3.411618318578669e-15    1    1   12    6
 -5.689893001203927e-15    1    1   12    7
 -2.57823276617053e-15    1    1   12    8
 -2.671474153004283e-15    1    1   12    9
 -1.730739032992923e-15    1    1   12   11
 0.4930421908939281    1    1   12   12
 0.0007013290031150574    1    1   13    2
 0.005545943781110034    1    1   13    3
 -0.002225601891885465    1    1   13    4
 0.005514209685389087    1    1   13    5
 5.15749552440492e-15    1    1   13    6
 2.664535259100376e-15    1    1   13    9
 1.026739457343773e-15    1    1   13   10
 0.0006422803198848116    1    1   13   12
 0.4843215842948159    1    1   13   13
 0.003861376618211579    1    1   14    2
 -0.001334163468506356    1    1   14    3
 0.000805691800254929    1    1   14    4
 0.004487990406528176    1    1   14    5
 2.845244656199397e-15    1    1   14    6
 3.608224830031759e-15    1    1   14    7
 -1.783078892869661e-15    1    1   14    8
 -1.998401444325282e-15    1    1   14    9
 -1.145784855882681e-15    1    1   14   10
 0.0005033987542663321    1    1   14   12
 -8.201804628475348e-05    1    1   14   13
 0.4844439925774449    1    1   14   14
 0.002193110796982079    1    1   15    2
 -0.002611167057900092    1    1   15    3
 0.006596371145213199    1    1   15    4
 0.003246197904233795    1    1   15    5
 2.473715676742927e-15    1    1   15    7
 2.582135893991477e-15    1    1   15   10
 -1.315543811039599e-15    1    1   15   11
 0.0003608374112209177    1    1   15   12
 -0.0001655235680461005    1    1   15   13
 0.000235425676574634    1    1   15   14
 0.4728144306697554    1    1   15   15
 0.0005333105010783511    1    1   16    1
 0.001380481395651758    1    1   16    6
 -0.004784238702402979    1    1   16    7
 -0.002761642029183236    1    1   16    8
 -0.003516707789383081    1    1   16    9
 0.0004876030952402736    1    1   16   10
 -0.00746149565783654    1    1   16   11
 5.981326545168031e-15    1    1   16   12
 2.683617217336121e-15    1    1   16   13
 1.713906794265085e-15    1    1   16   14
 0.4837052955356013    1    1   16   16
 6.487865800153259e-15    2    1    1    1
 0.4920389624051119    2    1    2    1
 4.385380947269368e-15    2    1    2    2
 0.002148344323226248    2    1    3    1
 1.591608789208721e-15    2    1    3    2
 -2.140431928920883e-15    2    1    3    3
 0.002198345591892886    2    1    4    1
 1.595945597898663e-15    2    1    4    2
 -2.208302984918475e-15    2    1    4    3
 5.634381849972669e-15    2    1    4    4
 -0.00117530203356752    2    1    5    1
 1.214306433183765e-15    2    1    5    2
 3.717512409018298e-15    2    1    5    3
 1.429412144204889e-15    2    1    5    4
 1.949829186997931e-15    2    1    5    5
 4.392319841173276e-15    2    1    6    1
 0.1824238688976945    2    1    6    2
 0.3075122370604648    2    1    6    3
 -0.1082260322341935    2    1    6    4
 0.347895739573947    2    1    6    5
 4.281052640309885e-15    2    1    6    6
 3.913536161803677e-15    2    1    7    1
 0.1983486815959376    2    1    7    2
 -0.001075528177137488    2    1    7    3
 0.4276634830696909    2    1    7    4
 0.08084745556694414    2    1    7    5
 7.924216838262055e-15    2    1    7    7
 -3.140825273473258e-15    2    1    8    1
 -0.2658050994175256    2    1    8    2
 -0.02358399396998605    2    1    8    3
 -0.04983003835939948    2    1    8    4
 0.09769371410148672    2    1    8    5
 -1.978203520181529e-15    2    1    8    6
 2.587773745288402e-15    2    1    8    7
 -2.485455553391872e-15    2    1    8    8
 2.983724378680108e-15    2    1    9    1
 0.2482767002869688    2    1    9    2
 0.04141167511382418    2    1    9    3
 -0.1426060653441042    2    1    9    4
 -0.1643632707292574    2    1    9    5
 1.237670990000828e-15    2    1    9    6
 2.831285553228646e-15    2    1    9    8
 -1.304512053934559e-15    2    1    9    9
 0.002962771118796057    2    1   10    2
 0.001370879452760623    2    1   10    3
 -0.02406563695594276    2    1   10    4
 0.09648035579503354    2    1   10    5
 1.750566380222252e-15    2    1   10    6
 -1.229051582729568e-15    2    1   10    7
 -1.580333086614871e-15    2    1   10    9
 -5.284835069563343e-15    2    1   10   10
 -1.78497624667151e-15    2    1   11    1
 -0.1524006731513169    2    1   11    2
 -0.05669631022876931    2    1   11    3
 0.06089394307266906    2    1   11    4
 0.06926024033883287    2    1   11    5
 -2.429952237215376e-15    2    1   11    6
 2.231711587448795e-15    2    1   11    8
 2.226083900547238e-15    2    1   11    9
 -2.974943188115923e-15    2    1   11   11
 -0.0004253855527224272    2    1   12    1
 1.700029006457271e-15    2    1   12    3
 -3.393119119010635e-15    2    1   12    4
 1.599415044850616e-15    2    1   12    5
 0.1041460464125886    2    1   12    6
 -0.3359813194353123    2    1   12    7
 -0.2720817463857674    2    1   12    8
 -0.2099818780259893    2    1   12    9
 0.02115715943874542    2    1   12   10
 -0.1312550562860135    2    1   12   11
 3.511080315377058e-15    2    1   12   12
 0.000701329003115047    2    1   13    1
 2.563921297493721e-15    2    1   13    2
 3.889683714008996e-15    2    1   13    3
 -2.14064876935538e-15    2    1   13    4
 1.613292832658431e-15    2    1   13    5
 0.4414311410356108    2    1   13    6
 -0.07248218415279845    2    1   13    7
 0.05155374300309847    2    1   13    8
 0.08612360430253045    2    1   13    9
 -0.07269626019106563    2    1   13   10
 0.01177823831833634    2    1   13   11
 2.650657471292561e-15    2    1   13   12
 -5.149526638437152e-15    2    1   13   13
 0.003861376618211565    2    1   14    1
 1.568190022283034e-15    2    1   14    2
 1.975850039137583e-15    2    1   14    3
 3.372302437298913e-15    2    1   14    4
 2.615963001773025e-15    2    1   14    5
 0.1675013156672737    2    1   14    6
 0.2832808403178441    2    1   14    7
 -0.04993409827791388    2    1   14    8
 -0.1953073702780677    2    1   14    9
 -0.04302609080406663    2    1   14   10
 -0.09769067849688967    2    1   14   11
 4.142519660632615e-15    2    1   14   12
 1.967176421757699e-15    2    1   14   13
 -3.969047313034935e-15    2    1   14   14
 0.002193110796982083    2    1   15    1
 1.665334536937735e-15    2    1   15    4
 1.686151218649456e-15    2    1   15    5
 0.003055992796242672    2    1   15    6
 0.1676496489479792    2    1   15    7
 -0.04808686578080191    2    1   15    8
 -0.1511090044119055    2    1   15    9
 0.05665454325900907    2    1   15   10
 -0.09239894724017358    2    1   15   11
 -5.283967707825354e-15    2    1   15   15
 0.00926981309180349    2    1   16    2
 0.008005423994187969    2    1   16    3
 -0.007247477454493591    2    1   16    4
 0.007661929075101388    2    1   16    5
 3.008579713484338e-15    2    1   16    6
 -3.622102617839573e-15    2    1   16    7
 -2.28278767416823e-15    2    1   16    8
 -2.955968803064479e-15    2    1   16    9
 -1.26331237138011e-15    2    1   16   11
 0.4402962084768761    2    1   16   12
 0.009453982232140296    2    1   16   13
 0.1961593205146411    2    1   16   14
 -0.03714983799399978    2    1   16   15
 -5.273559366969494e-15    2    1   16   16
 0.4920389624051119    2    2    1    1
 4.343747583845925e-15    2    2    2    1
 0.9533810810228466    2    2    2    2
 1.550842787523266e-15    2    2    3    1
 0.1658836717424759    2    2    3    2
 0.2032391894651522    2    2    3    3
 1.595945597898663e-15    2    2    4    1
 0.06594003314263207    2    2    4    2
 -0.08565302681440194    2    2    4    3
 0.4515007352869718    2    2    4    4
 1.193489751472043e-15    2    2    5    1
 0.001592600893042674    2    2    5    2
 0.1898278606992645    2    2    5    3
 0.03663963290882451    2    2    5    4
 0.3640607362555336    2    2    5    5
 0.1824238688976946    2    2    6    1
 1.93511114250644e-15    2    2    6    2
 1.09300792700516e-15    2    2    6    3
 -1.593072462141576e-15    2    2    6    4
 1.00082171295017    2    2    6    6
 0.1983486815959376    2    2    7    1
 -1.337471799978118e-15    2    2    7    3
 5.342948306008566e-15    2    2    7    4
 1.47798440153224e-15    2    2    7    5
 -0.002642765411377513    2    2    7    6
 0.9204944916992772    2    2    7    7
 -0.2658050994175256    2    2    8    1
 4.032147879473591e-15    2    2    8    2
 1.855503597991692e-15    2    2    8    4
 -2.409097227262791e-15    2    2    8    5
 -0.06023679356549016    2    2    8    6
 -0.001298451837954413    2    2    8    7
 0.3343403676062281    2    2    8    8
 0.2482767002869688    2    2    9    1
 -3.011479954295737e-15    2    2    9    2
 -1.160530005428484e-15    2    2    9    3
 1.901256929670581e-15    2    2    9    5
 -0.001486606127440933    2    2    9    6
 -0.08899295778482477    2    2    9    7
 0.005490572658610746    2    2    9    8
 0.4599498435687407    2    2    9    9
 0.002962771118796055    2    2   10    1
 1.261686068121382e-15    2    2   10    3
 0.000424692039715716    2    2   10    6
 -0.01311299528554801    2    2   10    7
 -0.0005577100116216666    2    2   10    8
 -0.04675405994740489    2    2   10    9
 0.04346598060718795    2    2   10   10
 -0.1524006731513169    2    2   11    1
 1.3631131813574e-15    2    2   11    2
 -1.123504501238104e-15    2    2   11    4
 -2.861101112971998e-15    2    2   11    5
 -0.1062441032734659    2    2   11    6
 0.003129361347070605    2    2   11    7
 0.1850645470887597    2    2   11    8
 0.002782971440139652    2    2   11    9
 6.215661287687022e-05    2    2   11   10
 0.1444318671848203    2    2   11   11
 -0.006756180664074365    2    2   12    2
 0.08224450627724694    2    2   12    3
 -0.2453707151806207    2    2   12    4
 0.02749152398626689    2    2   12    5
 3.35628335020044e-15    2    2   12    6
 -2.248201624865942e-15    2    2   12    9
 0.9169305560176559    2    2   12   12
 2.577799085301535e-15    2    2   13    1
 0.1462355500804466    2    2   13    2
 0.2786556198435211    2    2   13    3
 -0.1853786877007911    2    2   13    4
 0.2673780517652945    2    2   13    5
 -6.486957780833802e-15    2    2   13    6
 -2.601434692661719e-15    2    2   13    8
 3.513682400591023e-15    2    2   13   10
 -1.628824028779285e-15    2    2   13   11
 0.07755835132251783    2    2   13   12
 0.4379612994633822    2    2   13   13
 1.540434446667405e-15    2    2   14    1
 0.1372505089805874    2    2   14    2
 0.1035842542111843    2    2   14    3
 0.2605119198305559    2    2   14    4
 0.2013759333655661    2    2   14    5
 -5.35682609381638e-15    2    2   14    7
 2.05391259555654e-15    2    2   14    9
 1.356553758213863e-15    2    2   14   10
 0.1546198008950874    2    2   14   12
 0.07558322661068809    2    2   14   13
 0.4070975191302088    2    2   14   14
 0.04643719928796105    2    2   15    2
 0.001622698431318701    2    2   15    3
 0.1800437323214117    2    2   15    4
 0.06892993152981892    2    2   15    5
 -3.12944115066216e-15    2    2   15    7
 1.012644829101461e-15    2    2   15    8
 1.637578961322106e-15    2    2   15    9
 1.359752154622695e-15    2    2   15   11
 -0.02711867155227598    2    2   15   12
 -0.06569971960956807    2    2   15   13
 0.1621904268753918    2    2   15   14
 0.1371488833582454    2    2   15   15
 0.009269813091803469    2    2   16    1
 1.25507243486922e-15    2    2   16    3
 -1.318389841742373e-15    2    2   16    4
 1.429412144204889e-15    2    2   16    5
 0.1817603628303971    2    2   16    6
 -0.1982851716155007    2    2   16    7
 -0.261147490397999    2    2   16    8
 -0.2497603289557456    2    2   16    9
 -0.002514012755064905    2    2   16   10
 -0.1516334750913431    2    2   16   11
 -6.328271240363392e-15    2    2   16   12
 1.918604164430349e-15    2    2   16   13
 -2.900457651833221e-15    2    2   16   14
 1.589006703994755e-15    2    2   16   15
 0.4757767739784622    2    2   16   16
 2.125903619809577e-15    3    1    1    1
 0.002148344323226231    3    1    2    1
 1.550842787523266e-15    3    1    2    2
 0.479298901108256    3    1    3    1
 -2.154309716728697e-15    3    1    3    2
 8.799872722869972e-15    3    1    3    3
 0.002319826702880937    3    1    4    1
 -2.196159920586638e-15    3    1    4    2
 0.005183675727104651    3    1    5    1
 3.71057351511439e-15    3    1    5    2
 1.558215362296167e-15    3    1    5    3
 -1.234255753157498e-15    3    1    5    4
 -3.529294911874814e-15    3    1    5    5
 3.949684139860701e-15    3    1    6    1
 0.3075122370604648    3    1    6    2
 0.02613428706659347    3    1    6    3
 -0.043243965335915    3    1    6    4
 0.008090128072626978    3    1    6    5
 -0.001075528177137488    3    1    7    2
 -0.1427814476402196    3    1    7    3
 0.01439280270682068    3    1    7    4
 0.003485249241498596    3    1    7    5
 -2.16753698323302e-15    3    1    7    7
 -0.02358399396998605    3    1    8    2
 0.07651272453534855    3    1    8    3
 0.2667947150780287    3    1    8    4
 -0.2146548550615307    3    1    8    5
 -3.772122317193677e-15    3    1    8    6
 -2.097673705743486e-15    3    1    8    7
 -2.64695593731306e-15    3    1    8    8
 -1.380839886877538e-15    3    1    9    1
 0.04141167511382419    3    1    9    2
 -0.3279652660711288    3    1    9    3
 -0.02953104405780139    3    1    9    4
 -0.02287704845186612    3    1    9    5
 1.36349265211777e-15    3    1    9    7
 1.17898854741505e-15    3    1    9    8
 -2.650820101618434e-15    3    1   10    1
 0.001370879452760621    3    1   10    2
 -0.4337373236269934    3    1   10    3
 0.03248653336333562    3    1   10    4
 -0.1199503210785493    3    1   10    5
 3.20258901016291e-15    3    1   10    6
 1.94690184113222e-15    3    1   10    7
 1.701402893897717e-15    3    1   10    8
 4.383863064227889e-15    3    1   10    9
 4.957961667086119e-15    3    1   10   10
 -1.422574894254652e-15    3    1   11    1
 -0.05669631022876929    3    1   11    2
 0.06021585154644646    3    1   11    3
 -0.2618980114903438    3    1   11    4
 -0.2507715513299789    3    1   11    5
 -3.143967712768012e-15    3    1   11    6
 3.89845897534255e-15    3    1   11    7
 -1.641441431561586e-15    3    1   11    9
 -4.450877161110876e-15    3    1   11   11
 0.001995794838029558    3    1   12    1
 1.70610053862319e-15    3    1   12    2
 1.996612510740681e-15    3    1   12    3
 2.128939385892537e-15    3    1   12    5
 0.2613092516962718    3    1   12    6
 0.01928536019398441    3    1   12    7
 0.1166759110001575    3    1   12    8
 0.01075671247275386    3    1   12    9
 0.02692184556732598    3    1   12   10
 -0.1076272996469626    3    1   12   11
 -1.074227512498638e-15    3    1   12   12
 0.005545943781110046    3    1   13    1
 3.889683714008996e-15    3    1   13    2
 -5.184221107956688e-15    3    1   13    3
 0.02003193009923408    3    1   13    6
 0.09446863503538898    3    1   13    7
 -0.08743817660248376    3    1   13    8
 0.2492586325446083    3    1   13    9
 0.4031715295747627    3    1   13   10
 -0.1504183943851027    3    1   13   11
 4.793040964123918e-15    3    1   13   12
 -0.001334163468506349    3    1   14    1
 1.961972251329769e-15    3    1   14    2
 1.12713657851593e-15    3    1   14    3
 -2.067790383364354e-15    3    1   14    4
 1.588139342256767e-15    3    1   14    5
 0.1537043252796809    3    1   14    6
 -0.01148139094539626    3    1   14    7
 -0.2792898460517425    3    1   14    8
 -0.08851489134686887    3    1   14    9
 -0.01661139693652131    3    1   14   10
 0.166045136774759    3    1   14   11
 -1.384309333829492e-15    3    1   14   14
 -0.002611167057900105    3    1   15    1
 -4.13129816814739e-15    3    1   15    3
 0.001402656183648078    3    1   15    6
 0.1040819747251226    3    1   15    7
 0.1101383227437877    3    1   15    8
 0.205568787611453    3    1   15    9
 0.2252425392304294    3    1   15   10
 0.291983237842886    3    1   15   11
 3.585239743975066e-15    3    1   15   12
 -2.016182359954044e-15    3    1   15   15
 0.008005423994187962    3    1   16    2
 0.007118235447802194    3    1   16    3
 0.01296336770454357    3    1   16    4
 0.009964563487639461    3    1   16    5
 3.41867918522698e-15    3    1   16    6
 2.895253481405291e-15    3    1   16    9
 4.099151573733195e-15    3    1   16   10
 -1.420752079352161e-15    3    1   16   11
 0.052539884018298    3    1   16   12
 0.3363625389455905    3    1   16   13
 -0.07113550957953857    3    1   16   14
 0.335755081978784    3    1   16   15
 -2.019218126037003e-15    3    1   16   16
 0.002148344323226245    3    2    1    1
 1.578598363138894e-15    3    2    2    1
 0.1658836717424759    3    2    2    2
 -2.136854061751681e-15    3    2    3    1
 0.2032391894651522    3    2    3    2
 -0.02373248435872703    3    2    3    3
 -2.210037708394452e-15    3    2    4    1
 -0.08565302681440196    3    2    4    2
 -0.01069924456109831    3    2    4    3
 -0.03200604175867779    3    2    4    4
 3.730522835088124e-15    3    2    5    1
 0.1898278606992645    3    2    5    2
 0.04328083020654229    3    2    5    3
 0.003627784583938131    3    2    5    4
 -0.08993154806128398    3    2    5    5
 0.3075122370604648    3    2    6    1
 1.099946820909067e-15    3    2    6    2
 0.26871076384434    3    2    6    6
 -0.001075528177137491    3    2    7    1
 -1.339206523454095e-15    3    2    7    2
 -1.177877240188252e-15    3    2    7    4
 -1.438953123322761e-15    3    2    7    5
 -0.004758160195443575    3    2    7    6
 0.01476820859010898    3    2    7    7
 -0.02358399396998605    3    2    8    1
 -4.093950791437054e-15    3    2    8    3
 -1.874666871390374e-15    3    2    8    4
 -1.737528849098113e-15    3    2    8    5
 -0.3184767862489346    3    2    8    6
 -0.003120212977277615    3    2    8    7
 -0.1178550480934962    3    2    8    8
 0.04141167511382419    3    2    9    1
 -1.165734175856414e-15    3    2    9    2
 3.779095092415474e-15    3    2    9    3
 1.137978600240785e-15    3    2    9    4
 -0.002244134435384914    3    2    9    6
 -0.03777004241773101    3    2    9    7
 0.0008708106222362895    3    2    9    8
 0.02038807508920244    3    2    9    9
 0.001370879452760618    3    2   10    1
 1.260710286166145e-15    3    2   10    2
 6.721985706774347e-15    3    2   10    3
 1.057530799042361e-15    3    2   10    5
 0.0006209984119605056    3    2   10    6
 -0.0005889143966051258    3    2   10    7
 -2.737966193665664e-05    3    2   10    8
 -0.008868530889685608    3    2   10    9
 -0.05924848113266466    3    2   10   10
 -0.05669631022876931    3    2   11    1
 -1.711653686625389e-15    3    2   11    3
 3.227927365505312e-15    3    2   11    4
 -0.2015901375578095    3    2   11    6
 -0.001089615282003932    3    2   11    7
 0.002219532906431933    3    2   11    8
 0.0001518738579073666    3    2   11    9
 0.0001690934432906306    3    2   11   10
 -0.1267583625874112    3    2   11   11
 1.706967900361178e-15    3    2   12    1
 0.08224450627724697    3    2   12    2
 0.1717785964747159    3    2   12    3
 -0.07123102850442123    3    2   12    4
 0.1975469974569167    3    2   12    5
 2.651287663805318e-15    3    2   12    6
 1.575128916186941e-15    3    2   12    7
 1.701763729933248e-15    3    2   12    9
 0.04892654562288926    3    2   12   12
 3.903127820947816e-15    3    2   13    1
 0.2786556198435211    3    2   13    2
 0.06162937061231603    3    2   13    3
 -0.02923683706108371    3    2   13    4
 -0.007909993784016729    3    2   13    5
 -1.112169506337947e-15    3    2   13    6
 -2.739995730305367e-15    3    2   13    7
 -1.269471994972543e-15    3    2   13    8
 -5.901529265273098e-15    3    2   13    9
 -5.490020330706225e-15    3    2   13   10
 0.2392827470987725    3    2   13   12
 -0.01991271162222449    3    2   13   13
 1.979319486089537e-15    3    2   14    1
 0.1035842542111843    3    2   14    2
 0.08073329215704621    3    2   14    3
 0.03378693173780532    3    2   14    4
 0.1006783613904256    3    2   14    5
 -2.657596365196468e-15    3    2   14    7
 2.95382750377382e-15    3    2   14    8
 2.654126918244515e-15    3    2   14    9
 1.205199134934887e-15    3    2   14   10
 -2.364780463462446e-15    3    2   14   11
 0.1239561079243377    3    2   14   12
 0.09926907131653205    3    2   14   13
 0.04836558206932437    3    2   14   14
 0.001622698431318697    3    2   15    2
 -0.01687112175205714    3    2   15    3
 0.04198085991299284    3    2   15    4
 0.0640270770327445    3    2   15    5
 -3.12423698023423e-15    3    2   15    7
 -1.021372656589969e-15    3    2   15    8
 -2.02095284951298e-15    3    2   15    9
 -4.177973071672891e-15    3    2   15   10
 -2.326081222168291e-15    3    2   15   11
 0.01355221293512504    3    2   15   12
 0.01343007205148627    3    2   15   13
 0.02347842586037088    3    2   15   14
 -0.09759301363377684    3    2   15   15
 0.008005423994187966    3    2   16    1
 1.275021754842953e-15    3    2   16    2
 2.95293303698152e-15    3    2   16    3
 -1.389513504257422e-15    3    2   16    4
 1.91773680269236e-15    3    2   16    5
 0.3014787813308892    3    2   16    6
 0.004059232656460897    3    2   16    7
 -0.02353602936076103    3    2   16    8
 -0.04182349882954084    3    2   16    9
 -0.0012003154183231    3    2   16   10
 -0.05744921357550867    3    2   16   11
 -3.250871793980536e-15    3    2   16   12
 -4.212775961409676e-15    3    2   16   13
 -4.110427276327044e-15    3    2   16   15
 -0.002153500033305221    3    2   16   16
 0.4792989011082561    3    3    1    1
 -2.131541471106502e-15    3    3    2    1
 0.2032391894651522    3    3    2    2
 8.779069593685407e-15    3    3    3    1
 -0.02373248435872704    3    3    3    2
 1.164957084584252    3    3    3    3
 -0.01069924456109831    3    3    4    2
 -0.007476686868595189    3    3    4    3
 0.2997133739004332    3    3    4    4
 1.558161152187543e-15    3    3    5    1
 0.04328083020654229    3    3    5    2
 0.05864944752814804    3    3    5    3
 0.01466041076955871    3    3    5    4
 0.2591843971178752    3    3    5    5
 0.02613428706659347    3    3    6    1
 -2.925306580950788e-15    3    3    6    3
 -1.076998157269107e-15    3    3    6    4
 3.414218074452029e-15    3    3    6    5
 0.3838734437732365    3    3    6    6
 -0.1427814476402196    3    3    7    1
 -4.285864740362355e-15    3    3    7    3
 -3.228211968575589e-15    3    3    7    4
 -1.934108255496891e-15    3    3    7    5
 0.001328290787126416    3    3    7    6
 0.0857235594216577    3    3    7    7
 0.07651272453534855    3    3    8    1
 -4.073564402462537e-15    3    3    8    2
 -1.815959229574415e-15    3    3    8    3
 2.079704748800433e-15    3    3    8    5
 -0.06639972509433896    3    3    8    6
 0.001704488253793983    3    3    8    7
 0.4823296397093461    3    3    8    8
 -0.3279652660711288    3    3    9    1
 3.779095092415474e-15    3    3    9    2
 -9.665526842436711e-15    3    3    9    3
 2.323011574767442e-15    3    3    9    4
 -0.0005359254741623938    3    3    9    6
 0.1940340761361092    3    3    9    7
 -0.004617067589313544    3    3    9    8
 0.4678682339399645    3    3    9    9
 -0.4337373236269934    3    3   10    1
 6.725902387122451e-15    3    3   10    2
 -1.5513657456649e-14    3    3   10    3
 1.688238307831491e-15    3    3   10    4
 -1.637091070344487e-15    3    3   10    5
 -0.0008731042419430686    3    3   10    6
 0.2606346272747548    3    3   10    7
 -0.003084732081645268    3    3   10    8
 0.6140487521314484    3    3   10    9
 0.8768253287687693    3    3   10   10
 0.06021585154644647    3    3   11    1
 -1.690837004913667e-15    3    3   11    2
 2.686630113529504e-15    3    3   11    4
 4.97783009541339e-15    3    3   11    5
 -0.02414305847145165    3    3   11    6
 -0.002091735492728614    3    3   11    7
 -0.04798042375802607    3    3   11    8
 -0.004110336988078664    3    3   11    9
 -0.01082770288953094    3    3   11   10
 0.6068620022389857    3    3   11   11
 2.006912431379293e-15    3    3   12    1
 0.1717785964747159    3    3   12    2
 -0.01853209150989979    3    3   12    3
 0.103463677276154    3    3   12    4
 0.003544609964509986    3    3   12    5
 -1.798114574716372e-15    3    3   12    6
 -1.30228435728328e-15    3    3   12    8
 3.851736637972003e-15    3    3   12    9
 5.846140086786245e-15    3    3   12   10
 0.19872117308537    3    3   12   12
 -5.187636344800017e-15    3    3   13    1
 0.06162937061231602    3    3   13    2
 -0.5927845623516018    3    3   13    3
 0.05616658586689662    3    3   13    4
 0.009299096765578047    3    3   13    5
 7.366344845574375e-15    3    3   13    6
 3.770547682944731e-15    3    3   13    8
 4.359143254695219e-15    3    3   13    9
 6.846418234857793e-15    3    3   13   10
 0.09152599108190351    3    3   13   12
 0.7861885007404426    3    3   13   13
 1.130497605250635e-15    3    3   14    1
 0.08073329215704621    3    3   14    2
 0.06357522503285046    3    3   14    3
 -0.2558921531872391    3    3   14    4
 0.04461701564918664    3    3   14    5
 -1.396437151568279e-15    3    3   14    6
 2.04567265904565e-15    3    3   14    7
 -1.468578947685928e-15    3    3   14   10
 -0.03413805851394978    3    3   14   12
 -0.1082849624785463    3    3   14   13
 0.293748251670433    3    3   14   14
 -4.131352378256015e-15    3    3   15    1
 -0.01687112175205714    3    3   15    2
 -0.317134784017195    3    3   15    3
 -0.08892166654803471    3    3   15    4
 -0.2659974013213714    3    3   15    5
 3.272526403035329e-15    3    3   15    6
 2.88039991164224e-15    3    3   15    7
 1.783512573738655e-15    3    3   15    9
 5.346153478680976e-15    3    3   15   10
 -5.300875756001971e-15    3    3   15   11
 0.01806583497697705    3    3   15   12
 0.4427141913650157    3    3   15   13
 -0.05841263378422289    3    3   15   14
 0.6655680294360518    3    3   15   15
 0.007118235447802222    3    3   16    1
 2.928430067883347e-15    3    3   16    2
 -8.644899574840326e-15    3    3   16    3
 1.319582464132107e-15    3    3   16    4
 -1.375635716449608e-15    3    3   16    5
 0.02329847878283416    3    3   16    6
 0.142187616320063    3    3   16    7
 0.07496276661970527    3    3   16    8
 0.3297801785851717    3    3   16    9
 0.440569308320945    3    3   16   10
 0.05877913970309585    3    3   16   11
 5.60966204044e-15    3    3   16   12
 -2.09131757050729e-15    3    3   16   15
 0.4885388910397915    3    3   16   16
 0.002198345591892886    4    1    2    1
 1.595945597898663e-15    4    1    2    2
 0.002319826702880937    4    1    3    1
 -2.196159920586638e-15    4    1    3    2
 0.4850995050408512    4    1    4    1
 5.662137425588298e-15    4    1    4    2
 2.80331313717852e-15    4    1    4    4
 -0.00216053861328714    4    1    5    1
 1.429412144204889e-15    4    1    5    2
 -1.227316859253591e-15    4    1    5    3
 -2.664535259100376e-15    4    1    5    4
 -1.942890293094024e-15    4    1    5    5
 -1.47367469789661e-15    4    1    6    1
 -0.1082260322341935    4    1    6    2
 -0.04324396533591501    4    1    6    3