 &FCI NORB=  14,NELEC= 8,MS2=0,
  ORBSYM=1,1,1,1,1,1,1,1,1,1,1,1,1,1
  ISYM=1,
 &END
 0.2585291922992294    1    1    1    1
 -0.009754633798162566    1    1    2    1
 0.2587851169316027    1    1    2    2
 -0.004395910995694394    1    1    3    1
 0.0001920224731573328    1    1    3    2
 0.2579908234361797    1    1    3    3
 0.0007947959330328984    1    1    4    1
 -0.008610934234190366    1    1    4    2
 -0.003936880833210889    1    1    4    3
 0.2703380230568863    1    1    4    4
 -0.0002921903392673966    1    1    5    1
 0.00076119697166286    1    1    5    2
 -0.005615322633802156    1    1    5    3
 -8.736718596982079e-05    1    1    5    4
 0.2440451367236438    1    1    5    5
 0.002030822404016384    1    1    6    1
 -0.01173357504005307    1    1    6    2
 -0.007183708279405376    1    1    6    3
 0.006867656074964384    1    1    6    4
 -0.001928415333423185    1    1    6    5
 0.2572600639066198    1    1    6    6
 -0.001704077283812576    1    1    7    1
 0.00651093576006612    1    1    7    2
 -0.0109227069379729    1    1    7    3
 -0.001717805002489838    1    1    7    4
 -0.007285779508101387    1    1    7    5
 0.0002984522671991051    1    1    7    6
 0.2550327879390886    1    1    7    7
 0.006077285871237407    1    1    8    1
 -0.0001578797170546861    1    1    8    2
 0.001496893095524233    1    1    8    3
 0.001434160600372939    1    1    8    4
 0.0004439440523852506    1    1    8    5
 0.00347166331488325    1    1    8    6
 0.006728584302975023    1    1    8    7
 0.2574385947901069    1    1    8    8
 -0.01780666152154754    1    1    9    1
 0.001820852236498623    1    1    9    2
 9.50021625305518e-05    1    1    9    3
 -0.001102491397654319    1    1    9    4
 0.0007942727591767965    1    1    9    5
 -0.006703418837223308    1    1    9    6
 0.002735041130372517    1    1    9    7
 1.195817849674458e-05    1    1    9    8
 0.2570566753320756    1    1    9    9
 0.0005823944783934325    1    1   10    1
 -0.01402656912827458    1    1   10    2
 -0.0004219427288859358    1    1   10    3
 0.001246827889691779    1    1   10    4
 -0.001714616994373065    1    1   10    5
 0.0001501752032491243    1    1   10    6
 0.0002119979955751139    1    1   10    7
 0.0054409520579063    1    1   10    8
 -0.006024339191279376    1    1   10    9
 0.2694776621346688    1    1   10   10
 -0.0001584949446665866    1    1   11    1
 -0.0001425434162765013    1    1   11    2
 0.01250291702324228    1    1   11    3
 -0.00113318061727705    1    1   11    4
 -0.0009193624785438191    1    1   11    5
 0.0003928063192632702    1    1   11    6
 0.0006834358910980456    1    1   11    7
 0.0050182336685126    1    1   11    8
 0.004574834661658473    1    1   11    9
 0.0001195377179238448    1    1   11   10
 0.2428823118119808    1    1   11   11
 -0.0003366224687080081    1    1   12    1
 0.000426871966807912    1    1   12    2
 0.0003476507567435824    1    1   12    3
 -0.01315938196852425    1    1   12    4
 -0.002403581485874048    1    1   12    5
 -0.002098054263780283    1    1   12    6
 -0.0004675892268024076    1    1   12    7
 -0.01224931930855601    1    1   12    8
 0.004917642725692539    1    1   12    9
 -0.006923399255718523    1    1   12   10
 0.001796130806487835    1    1   12   11
 0.2554531775531046    1    1   12   12
 0.0001419883868016211    1    1   13    1
 6.136451336017507e-06    1    1   13    2
 -7.780377601559682e-05    1    1   13    3
 0.002692187677832983    1    1   13    4
 -0.01278739044449562    1    1   13    5
 -0.00010063948878974    1    1   13    6
 0.001694528179522831    1    1   13    7
 -0.004015528931541303    1    1   13    8
 -0.01250741984576378    1    1   13    9
 0.004644445627653586    1    1   13   10
 0.006145230842443949    1    1   13   11
 -0.0002944259233202788    1    1   13   12
 0.2545835367352207    1    1   13   13
 -0.0002073051431566129    1    1   14    1
 0.0009033076732344845    1    1   14    2
 0.0005797171428191666    1    1   14    3
 -6.930961915131359e-05    1    1   14    4
 -3.584776283910643e-05    1    1   14    5
 -0.01834950003961085    1    1   14    6
 -0.003306173800671119    1    1   14    7
 -0.002391507139738014    1    1   14    8
 0.0006704451812490856    1    1   14    9
 -0.0004770038621565928    1    1   14   10
 0.0003180075759744369    1    1   14   11
 0.008273502792397008    1    1   14   12
 -0.006050323812932093    1    1   14   13
 0.2549405573495903    1    1   14   14
 -0.009754633798162576    2    1    1    1
 0.2587851169316027    2    1    2    1
 0.004673455724281737    2    1    2    2
 0.0001920224731573328    2    1    3    1
 -0.004757395550939993    2    1    3    2
 0.0002334170823161917    2    1    3    3
 -0.008610934234190348    2    1    4    1
 0.1499678100014324    2    1    4    2
 0.1375997666684523    2    1    4    3
 0.003841556034058155    2    1    4    4
 0.0007611969716628635    2    1    5    1
 -0.1087056900484095    2    1    5    2
 0.1181637478362427    2    1    5    3
 0.001242153596786349    2    1    5    4
 -0.001618531222039195    2    1    5    5
 -0.01173357504005306    2    1    6    1
 0.005837249697557667    2    1    6    2
 0.002059922474606395    2    1    6    3
 -0.17839680461237    2    1    6    4
 -0.03614490769170287    2    1    6    5
 -0.000609660333631932    2    1    6    6
 0.006510935760066106    2    1    7    1
 -0.0007476120811629426    2    1    7    2
 -0.003428949357292158    2    1    7    3
 -0.03619221843603181    2    1    7    4
 0.1765653621739627    2    1    7    5
 -0.000181515313244787    2    1    7    6
 0.000816503983204174    2    1    7    7
 -0.0001578797170546827    2    1    8    1
 0.008394445905647002    2    1    8    2
 0.0008311993627892998    2    1    8    3
 -0.0007161362312131103    2    1    8    4
 0.004866557449219603    2    1    8    5
 -0.1404297216464259    2    1    8    6
 -0.1165597716178073    2    1    8    7
 -7.558364473141815e-05    2    1    8    8
 0.001820852236498617    2    1    9    1
 -0.02377137775982713    2    1    9    2
 -0.0001598417908521138    2    1    9    3
 0.004234543124889005    2    1    9    4
 0.0007561738439299335    2    1    9    5
 0.1164066754144587    2    1    9    6
 -0.1376304118297603    2    1    9    7
 0.0001625581943106545    2    1    9    8
 -0.0003298777714278948    2    1    9    9
 -0.01402656912827459    2    1   10    1
 0.0008383806296230305    2    1   10    2
 -9.956073417557304e-05    2    1   10    3
 -0.01094850742323391    2    1   10    4
 0.008848970429596981    2    1   10    5
 -0.004804674604143862    2    1   10    6
 -0.001975926643381674    2    1   10    7
 -0.06021476006709824    2    1   10    8
 0.1889221310357999    2    1   10    9
 -0.003285271814538648    2    1   10   10
 -0.0001425434162765048    2    1   11    1
 -0.000465466681424085    2    1   11    2
 -0.0006519242685590482    2    1   11    3
 0.008168929214884636    2    1   11    4
 0.009080045729814738    2    1   11    5
 0.00118757241292729    2    1   11    6
 -0.003900111407822242    2    1   11    7
 -0.1568463173477273    2    1   11    8
 -0.0498876619821195    2    1   11    9
 -0.001917307158260221    2    1   11   10
 0.003039243117276953    2    1   11   11
 0.0004268719668078964    2    1   12    1
 -0.00615232884684461    2    1   12    2
 -0.007179775925749154    2    1   12    3
 0.0008363360434770397    2    1   12    4
 -0.0002144309689384276    2    1   12    5
 0.01805723311537727    2    1   12    6
 0.001505282317505144    2    1   12    7
 0.001569272945812498    2    1   12    8
 -0.004566433221351895    2    1   12    9
 0.1131190535005374    2    1   12   10
 -0.1396520914587261    2    1   12   11
 -0.008046367972344027    2    1   12   12
 6.136451336014037e-06    2    1   13    1
 0.006602928419913716    2    1   13    2
 -0.004203456308543282    2    1   13    3
 -8.157302678531847e-05    2    1   13    4
 0.0007058477041979178    2    1   13    5
 -0.001695571892483369    2    1   13    6
 -0.009881343409559127    2    1   13    7
 -0.004363905340966291    2    1   13    8
 -0.00135237186753712    2    1   13    9
 -0.1466959427815585    2    1   13   10
 -0.1068332844569217    2    1   13   11
 0.006005876176479973    2    1   13   12
 0.003347694298358793    2    1   13   13
 0.0009033076732344845    2    1   14    1
 -0.0001659672147979359    2    1   14    2
 -2.858731169360848e-05    2    1   14    3
 0.0107518461990792    2    1   14    4
 0.0001135990088149894    2    1   14    5
 0.0005715753553028921    2    1   14    6
 0.0003368419783713571    2    1   14    7
 0.02045023234549464    2    1   14    8
 -0.01194315768763363    2    1   14    9
 0.004223514117693873    2    1   14   10
 0.002597046254243909    2    1   14   11
 -0.2505734215903783    2    1   14   12
 0.04339420686055923    2    1   14   13
 0.007768056317380371    2    1   14   14
 0.2587851169316027    2    2    1    1
 0.004673455724281747    2    2    2    1
 0.3910812337684751    2    2    2    2
 -0.004757395550939979    2    2    3    1
 0.02355085654645959    2    2    3    2
 0.1274009895369099    2    2    3    3
 0.1499678100014324    2    2    4    1
 0.004188889742589949    2    2    4    2
 0.004873363806119611    2    2    4    3
 0.2753550595034985    2    2    4    4
 -0.1087056900484095    2    2    5    1
 -0.007672291482494334    2    2    5    2
 0.003369270320174117    2    2    5    3
 0.0002515348121722993    2    2    5    4
 0.2392538290024527    2    2    5    5
 0.005837249697557684    2    2    6    1
 -0.09734038910946761    2    2    6    2
 -0.1082857199036251    2    2    6    3
 -0.006615256220778628    2    2    6    4
 -0.004110128815907006    2    2    6    5
 0.2510770970766987    2    2    6    6
 -0.0007476120811629461    2    2    7    1
 -0.09010840737493811    2    2    7    2
 0.06718420521866185    2    2    7    3
 -0.003402244743152857    2    2    7    4
 0.004687903609044957    2    2    7    5
 -0.001494344782166613    2    2    7    6
 0.2607014584519197    2    2    7    7
 0.008394445905646992    2    2    8    1
 -0.001120209075686857    2    2    8    2
 0.001554430213381058    2    2    8    3
 0.1117126516919065    2    2    8    4
 -0.0692321077486483    2    2    8    5
 -0.005730150010743347    2    2    8    6
 -0.001867221523987377    2    2    8    7
 0.2444334329851003    2    2    8    8
 -0.02377137775982713    2    2    9    1
 0.002771942054006571    2    2    9    2
 0.001773622060497293    2    2    9    3
 -0.07347905246715074    2    2    9    4
 -0.1051937064891028    2    2    9    5
 0.001523761489771738    2    2    9    6
 -0.00659955318358113    2    2    9    7
 -0.0110103314540988    2    2    9    8
 0.2703869911221835    2    2    9    9
 0.0008383806296230027    2    2   10    1
 -0.02739998180952301    2    2   10    2
 -0.001307119323194758    2    2   10    3
 0.002138962987823612    2    2   10    4
 -0.001785833591758643    2    2   10    5
 0.1228852743573393    2    2   10    6
 -0.06239235878280566    2    2   10    7
 0.002003426314582196    2    2   10    8
 0.005599915300234159    2    2   10    9
 0.27328269746406    2    2   10   10
 -0.0004654666814240746    2    2   11    1
 0.0003383180989619365    2    2   11    2
 0.007983675718343771    2    2   11    3
 -0.00104821650629847    2    2   11    4
 -0.002130814310813495    2    2   11    5
 0.0549753234624429    2    2   11    6
 0.1082571904374421    2    2   11    7
 -0.006633549020968521    2    2   11    8
 -0.0006947337861088034    2    2   11    9
 -0.0003698774927999096    2    2   11   10
 0.2389662498403142    2    2   11   11
 -0.006152328846844605    2    2   12    1
 0.0004964259054472744    2    2   12    2
 0.0001462452168970885    2    2   12    3
 -0.01913324352779565    2    2   12    4
 -0.002578298340919667    2    2   12    5
 -0.002304661678980875    2    2   12    6
 0.0003617058399389729    2    2   12    7
 0.04529958692480879    2    2   12    8
 0.1202891879051654    2    2   12    9
 -0.002725850149758884    2    2   12   10
 -0.008275155307998924    2    2   12   11
 0.3734596520528539    2    2   12   12
 0.006602928419913712    2    2   13    1
 0.0003462241407787559    2    2   13    2
 9.331319000915883e-05    2    2   13    3
 0.004096946571340725    2    2   13    4
 -0.0144892710947721    2    2   13    5
 0.0004370784117563083    2    2   13    6
 0.002603406609350364    2    2   13    7
 0.1084549680832857    2    2   13    8
 -0.07741341509763211    2    2   13    9
 -0.003342338675172123    2    2   13   10
 -0.005292633742962405    2    2   13   11
 -0.0425058822560808    2    2   13   12
 0.1348705075767376    2    2   13   13
 -0.0001659672147979463    2    2   14    1
 0.00647727743776734    2    2   14    2
 0.0049630276074327    2    2   14    3
 0.0003242402365949901    2    2   14    4
 0.0002886684305069866    2    2   14    5
 -0.02355726736066419    2    2   14    6
 -0.004312020214578948    2    2   14    7
 -0.0017451086929548    2    2   14    8
 0.0002364464600640454    2    2   14    9
 -0.1416364673107539    2    2   14   10
 0.1143795067389952    2    2   14   11
 -0.01101756447364327    2    2   14   12
 -0.00197024433353965    2    2   14   13
 0.2547593446871921    2    2   14   14
 -0.004395910995694394    3    1    1    1
 0.0001920224731573258    3    1    2    1
 -0.004757395550939996    3    1    2    2
 0.2579908234361797    3    1    3    1
 0.0002334170823161882    3    1    3    2
 0.008204238333334609    3    1    3    3
 -0.003936880833210896    3    1    4    1
 0.1375997666684523    3    1    4    2
 -0.1497276454241407    3    1    4    3
 -0.0002721191725985998    3    1    4    4
 -0.005615322633802169    3    1    5    1
 0.1181637478362427    3    1    5    2
 0.1084022514369255    3    1    5    3
 0.001369445718623338    3    1    5    4
 0.0002273586330043646    3    1    5    5
 -0.007183708279405386    3    1    6    1
 0.002059922474606401    3    1    6    2
 -0.0008816234744298784    3    1    6    3
 -0.03614857222391049    3    1    6    4
 0.1783376545032165    3    1    6    5
 0.0005381499674514417    3    1    6    6
 -0.01092270693797292    3    1    7    1
 -0.003428949357292158    3    1    7    2
 -0.005068126085818438    3    1    7    3
 0.1763317449506182    3    1    7    4
 0.03605997468032736    3    1    7    5
 -0.0002084872375675857    3    1    7    6
 -0.0003571997167434934    3    1    7    7
 0.001496893095524223    3    1    8    1
 0.0008311993627893137    3    1    8    2
 0.007449504153840224    3    1    8    3
 0.001038663259345454    3    1    8    4
 0.003797412511892688    3    1    8    5
 0.1172572744155588    3    1    8    6
 -0.1380569635590425    3    1    8    7
 -0.0001639103866554678    3    1    8    8
 9.500216253053358e-05    3    1    9    1
 -0.0001598417908521181    3    1    9    2
 -0.02233764241234154    3    1    9    3
 0.00329668579239491    3    1    9    4
 -0.00151772941520218    3    1    9    5
 0.1398115163887349    3    1    9    6
 0.1155071082996464    3    1    9    7
 0.0004713339395842394    3    1    9    8
 0.00020697404550513    3    1    9    9
 -0.0004219427288859323    3    1   10    1
 -9.956073417557304e-05    3    1   10    2
 -0.0008722766152425322    3    1   10    3
 -0.009411659788999317    3    1   10    4
 -0.01015790427235117    3    1   10    5
 -0.003116606353863005    3    1   10    6
 -0.002799890155019982    3    1   10    7
 -0.1886286877050842    3    1   10    8
 -0.06007238735134014    3    1   10    9
 0.00102732001544445    3    1   10   10
 0.01250291702324227    3    1   11    1
 -0.0006519242685590343    3    1   11    2
 0.0006891983232324046    3    1   11    3
 -0.009200906604205493    3    1   11    4
 0.00816900489018715    3    1   11    5
 0.002596628918406024    3    1   11    6
 -0.002189259883982737    3    1   11    7
 0.049846370620686    3    1   11    8
 -0.1566873543782996    3    1   11    9
 -0.002897507999108258    3    1   11   10
 -0.002087382225099847    3    1   11   11
 0.0003476507567435928    3    1   12    1
 -0.007179775925749161    3    1   12    2
 0.005346203358840161    3    1   12    3
 -0.0001683653816739062    3    1   12    4
 -0.0009958182068986656    3    1   12    5
 -0.0013249827534728    3    1   12    6
 -0.009231339668655979    3    1   12    7
 0.002216618793922334    3    1   12    8
 -0.003164732491988701    3    1   12    9
 0.1468563300749759    3    1   12   10
 0.1072397794926809    3    1   12   11
 0.004964147824624121    3    1   12   12
 -7.78037760156107e-05    3    1   13    1
 -0.004203456308543279    3    1   13    2
 -0.006177642105015396    3    1   13    3
 0.0008707295793210883    3    1   13    4
 -0.0001823555510494963    3    1   13    5
 -0.0185723657747827    3    1   13    6
 -0.001864115909900422    3    1   13    7
 -0.002881379206365428    3    1   13    8
 -0.002104191978524426    3    1   13    9
 0.1122735140188643    3    1   13   10
 -0.1389646206401173    3    1   13   11
 0.004322420198129444    3    1   13   12
 -0.008611632133116873    3    1   13   13
 0.0005797171428191666    3    1   14    1
 -2.858731169360501e-05    3    1   14    2
 -0.0002789227501325958    3    1   14    3
 0.0004081198184453412    3    1   14    4
 -0.01046607648694024    3    1   14    5
 -0.0008851993949962342    3    1   14    6
 0.0009409193882959251    3    1   14    7
 -0.01158364746365921    3    1   14    8
 -0.0206330342922962    3    1   14    9
 0.004924664536244551    3    1   14   10
 0.001045459611451423    3    1   14   11
 0.04358635515831037    3    1   14   12
 0.2506457367890164    3    1   14   13
 0.00547736136148496    3    1   14   14
 0.0001920224731573258    3    2    1    1
 -0.004757395550939979    3    2    2    1
 0.02355085654645959    3    2    2    2
 0.0002334170823161952    3    2    3    1
 0.1274009895369099    3    2    3    2
 -0.02357076086736123    3    2    3    3
 0.1375997666684523    3    2    4    1
 0.004873363806119623    3    2    4    2
 -0.001906989310902822    3    2    4    3
 0.0001757951286564703    3    2    4    4
 0.1181637478362428    3    2    5    1
 0.003369270320174117    3    2    5    2
 0.00244235652142466    3    2    5    3
 -0.0007178371694452242    3    2    5    4
 -0.0002231174905171045    3    2    5    5
 0.002059922474606394    3    2    6    1
 -0.1082857199036251    3    2    6    2
 0.06796965472211568    3    2    6    3
 -0.000229429616606006    3    2    6    4
 0.001955278035552593    3    2    6    5
 -0.003225582317295517    3    2    6    6
 -0.003428949357292155    3    2    7    1
 0.06718420521866184    3    2    7    2
 0.1072934990603668    3    2    7    3
 0.004333093264773588    3    2    7    4
 0.0003452157810655138    3    2    7    5
 0.005929527336967689    3    2    7    6
 0.003198745767490394    3    2    7    7
 0.0008311993627892998    3    2    8    1
 0.001554430213381062    3    2    8    2
 0.001648306962086631    3    2    8    3
 -0.0515576676203036    3    2    8    4
 -0.1155429324464321    3    2    8    5
 0.002136049013445743    3    2    8    6
 -0.001911882419542481    3    2    8    7
 0.008787857562436448    3    2    8    8
 -0.0001598417908521112    3    2    9    1
 0.001773622060497294    3    2    9    2
 0.0007465311308683265    3    2    9    3
 -0.1190220832908267    3    2    9    4
 0.05002915232759057    3    2    9    5
 0.001639747915291571    3    2    9    6
 0.002247931094323304    3    2    9    7
 -0.01471540497268629    3    2    9    8
 -0.008784798773317271    3    2    9    9
 -9.956073417557998e-05    3    2   10    1
 -0.001307119323194758    3    2   10    2
 -0.00899258253879482    3    2   10    3
 0.0001034442272839636    3    2   10    4
 -0.001775376825178455    3    2   10    5
 0.08356785982646665    3    2   10    6
 0.107296199959472    3    2   10    7
 -0.001268468791430354    3    2   10    8
 -0.0005440028008214561    3    2   10    9
 0.0002455651917303119    3    2   10   10
 -0.0006519242685590343    3    2   11    1
 0.007983675718343769    3    2   11    2
 -0.0008110922875953323    3    2   11    3
 -0.001061125138748148    3    2   11    4
 -0.0002035311332543727    3    2   11    5
 -0.09364804500951639    3    2   11    6
 0.07332197158682666    3    2   11    7
 0.002844181745972806    3    2   11    8
 -0.003335219962585679    3    2   11    9
 -0.0002591999449190786    3    2   11   10
 -0.0003361159371503691    3    2   11   11
 -0.007179775925749156    3    2   12    1
 0.0001462452168970816    3    2   12    2
 -0.0003766544142331466    3    2   12    3
 -0.0001822518275441162    3    2   12    4
 0.001866345380134164    3    2   12    5
 -0.001293441920785497    3    2   12    6
 -0.0006104438727857243    3    2   12    7
 -0.09529182632540614    3    2   12    8
 0.08449784377442243    3    2   12    9
 -2.606024797143121e-05    3    2   12   10
 -0.001052307117470565    3    2   12   11
 -0.04274481097034967    3    2   12   12
 -0.004203456308543296    3    2   13    1
 9.331319000915883e-05    3    2   13    2
 0.0002223006300800662    3    2   13    3
 0.001987935772541603    3    2   13    4
 -0.0001435728215374091    3    2   13    5
 -0.0009669871941906886    3    2   13    6
 0.0005882376720165484    3    2   13    7
 0.08430990497523792    3    2   13    8
 0.09495797224190729    3    2   13    9
 0.0061581374151004    3    2   13   10
 -0.0001051785045793584    3    2   13   11
 -0.1192627124274318    3    2   13   12
 0.04247907939700704    3    2   13   13
 -2.858731169360501e-05    3    2   14    1
 0.0049630276074327    3    2   14    2
 -0.004139010087725128    3    2   14    3
 8.224310492282311e-05    3    2   14    4
 0.0002569195725568713    3    2   14    5
 -0.0001421384743285495    3    2   14    6
 -0.0002498561792767529    3    2   14    7
 -0.0002458823251716771    3    2   14    8
 -0.0003188631043733641    3    2   14    9
 -0.1302545640447588    3    2   14   10
 -0.1238415719600682    3    2   14   11
 -0.001645625969328924    3    2   14   12
 0.007596149990497764    3    2   14   13
 0.0002552642890545839    3    2   14   14
 0.2579908234361797    3    3    1    1
 0.0002334170823161952    3    3    2    1
 0.1274009895369099    3    3    2    2
 0.008204238333334623    3    3    3    1
 -0.02357076086736121    3    3    3    2
 0.3905231242786475    3    3    3    3
 -0.1497276454241407    3    3    4    1
 -0.001906989310902812    3    3    4    2
 -0.008833591718547295    3    3    4    3
 0.2739029002682176    3    3    4    4
 0.1084022514369255    3    3    5    1
 0.002442356521424646    3    3    5    2
 0.002933220519773839    3    3    5    3
 -0.0002563224599951876    3    3    5    4
 0.2410615417693416    3    3    5    5
 -0.0008816234744298784    3    3    6    1
 0.06796965472211566    3    3    6    2
 0.09037873909093318    3    3    6    3
 0.001504540186733421    3    3    6    4
 0.005106344860453764    3    3    6    5
 0.2638120539736133    3    3    6    6
 -0.005068126085818452    3    3    7    1
 0.1072934990603668    3    3    7    2
 -0.09658327760460469    3    3    7    3
 0.004766996667591526    3    3    7    4
 -0.0006909195897540493    3    3    7    5
 0.002315288952613694    3    3    7    6
 0.2483609371091369    3    3    7    7
 0.007449504153840217    3    3    8    1
 0.001648306962086631    3    3    8    2
 0.004260407191789578    3    3    8    3
 -0.108533182542152    3    3    8    4
 0.07141088348492995    3    3    8    5
 0.00517285149414053    3    3    8    6
 -0.002212635039414334    3    3    8    7
 0.2708830614941363    3    3    8    8
 -0.02233764241234155    3    3    9    1
 0.0007465311308683161    3    3    9    2
 -0.002702498530434081    3    3    9    3
 0.07155269814671544    3    3    9    4
 0.1079344420399849    3    3    9    5
 0.002801653797079773    3    3    9    6
 0.003999923634659635    3    3    9    7
 0.01111404785988076    3    3    9    8
 0.2439014118215287    3    3    9    9
 -0.0008722766152425322    3    3   10    1
 -0.008992582538794827    3    3   10    2
 0.0001802374019675822    3    3   10    3
 0.0001568575185899694    3    3   10    4
 -0.003512152718330927    3    3   10    5
 -0.1237412687667962    3    3   10    6
 0.06293468172608548    3    3   10    7
 -0.005693386557006672    3    3   10    8
 -0.002608752747996065    3    3   10    9
 0.2730280552169387    3    3   10   10
 0.000689198323232422    3    3   11    1
 -0.0008110922875953358    3    3   11    2
 0.02447205427333926    3    3   11    3
 -0.002660998409741169    3    3   11    4
 0.0004873203070702471    3    3   11    5
 -0.05409092094125917    3    3   11    6
 -0.1075727272647926    3    3   11    7
 0.004103692318145113    3    3   11    8
 -0.002341256739310016    3    3   11    9
 0.0003099373171109691    3    3   11   10
 0.2387591863818113    3    3   11   11
 0.005346203358840171    3    3   12    1
 -0.0003766544142331501    3    3   12    2
 0.0003159961266971135    3    3   12    3
 -0.01505061919948317    3    3   12    4
 -0.003770754114633727    3    3   12    5
 -0.002602120890185715    3    3   12    6
 -0.002400694674824087    3    3   12    7
 -0.077274630477633    3    3   12    8
 -0.1087295555484292    3    3   12    9
 0.005899487001551577    3    3   12   10
 0.001287737036837776    3    3   12   11
 0.1353506390469288    3    3   12   12
 -0.006177642105015417    3    3   13    1
 0.0002223006300800731    3    3   13    2
 -0.001110996975052847    3    3   13    3
 0.002912343830432259    3    3   13    4
 -0.01861996987668887    3    3   13    5
 -0.002277668752587263    3    3   13    6
 0.001920216732904087    3    3   13    7
 -0.1200353459603987    3    3   13    8
 0.04501823634502043    3    3   13    9
 0.005981143335453666    3    3   13   10
 0.0001527539080463831    3    3   13   11
 0.04280094685429033    3    3   13   12
 0.3735566682570577    3    3   13   13
 -0.0002789227501325819    3    3   14    1
 -0.00413901008772513    3    3   14    2
 -0.003405149827581354    3    3   14    3
 0.0006661032003229365    3    3   14    4
 -0.000900164847542597    3    3   14    5
 -0.02411548440347167    3    3   14    6
 -0.004178691717125951    3    3   14    7
 -0.00477869676766704    3    3   14    8
 -0.0005297929618266724    3    3   14    9
 0.1417928564821254    3    3   14   10
 -0.1138862606527802    3    3   14   11
 0.005449313840303855    3    3   14   12
 0.005729997711648449    3    3   14   13
 0.2552822674095499    3    3   14   14
 0.0007947959330328914    4    1    1    1
 -0.008610934234190369    4    1    2    1
 0.1499678100014324    4    1    2    2
 -0.003936880833210903    4    1    3    1
 0.1375997666684523    4    1    3    2
 -0.1497276454241407    4    1    3    3
 0.2703380230568862    4    1    4    1
 0.00384155603405812    4    1    4    2
 -0.0002721191725985964    4    1    4    3
 0.0009111284125150297    4    1    4    4
 -8.736718596982079e-05    4    1    5    1
 0.001242153596786349    4    1    5    2
 0.001369445718623333    4    1    5    3
 -0.0004968937773881417    4    1    5    4
 -0.001195251128573452    4    1    5    5
 0.00686765607496438    4    1    6    1
 -0.17839680461237    4    1    6    2
 -0.0361485722239105    4    1    6    3
 -5.450939030180162e-06    4    1    6    4
 -0.0002704335871378406    4    1    6    5
 -0.00837137802707167    4    1    6    6
 -0.001717805002489834    4    1    7    1
 -0.03619221843603181    4    1    7    2
 0.1763317449506182    4    1    7    3
 0.002262716567002786    4    1    7    4
 -0.0009771742516761148    4    1    7    5
 0.003215417659699067    4    1    7    6
 0.008132012154154336    4    1    7    7
 0.001434160600372946    4    1    8    1
 -0.0007161362312131207    4    1    8    2
 0.00103866325934544    4    1    8    3
 0.06167738718729886    4    1    8    4
 -0.1719024910423916    4    1    8    5
 0.00117676583958576    4    1    8    6
 0.0001128541428817714    4    1    8    7
 -0.00519840320311131    4    1    8    8
 -0.001102491397654312    4    1    9    1
 0.004234543124889033    4    1    9    2
 0.003296685792394917    4    1    9    3
 -0.1786302755394768    4    1    9    4
 -0.05903499411859868    4    1    9    5
 -0.0008484675097425358    4    1    9    6
 0.001120950852851852    4    1    9    7
 -0.02478853034202805    4    1    9    8
 0.005232934947573189    4    1    9    9
 0.001246827889691793    4    1   10    1
 -0.01094850742323391    4    1   10    2
 -0.009411659788999303    4    1   10    3
 0.002299849085952077    4    1   10    4
 -0.001623077451551377    4    1   10    5
 0.1964363872274977    4    1   10    6
 0.03524864621840849    4    1   10    7
 0.002592377776234504    4    1   10    8
 -0.001730473510993969    4    1   10    9
 0.0005514660103250156    4    1   10   10
 -0.001133180617277053    4    1   11    1
 0.008168929214884643    4    1   11    2
 -0.009200906604205493    4    1   11    3
 -0.0009518074594977201    4    1   11    4
 -0.002513792670149582    4    1   11    5
 -0.03064095503181898    4    1   11    6
 0.1706366450710844    4    1   11    7
 0.001583653129617803    4    1   11    8
 -0.002397096030896297    4    1   11    9
 -0.0005765815261717308    4    1   11   10
 -0.0004054890987871783    4    1   11   11
 -0.01315938196852426    4    1   12    1
 0.0008363360434770328    4    1   12    2
 -0.0001683653816738958    4    1   12    3
 -0.002768141436111407    4    1   12    4
 0.002799109206843106    4    1   12    5
 -0.002594495404828528    4    1   12    6
 0.0008074259251491973    4    1   12    7
 -0.02576790397319374    4    1   12    8
 0.1879466062126275    4    1   12    9
 -0.006588929655023366    4    1   12   10
 -0.001975472160228755    4    1   12   11
 0.07820249015763647    4    1   12   12
 0.002692187677832979    4    1   13    1