 &FCI NORB=  16,NELEC= 8,MS2=0,
  ORBSYM=1,1,1,1,1,1,1,1,1,1,1,1,1,1,1,1
  ISYM=1,
 &END
 0.484425459260971    1    1    1    1
 0.4942986082318626    1    1    2    2
 7.007393080914873e-06    1    1    3    2
 0.4903879021373884    1    1    3    3
 -5.592872713550189e-05    1    1    4    2
 -8.604834385492037e-05    1    1    4    3
 0.4860010409743251    1    1    4    4
 -9.676645225895324e-05    1    1    5    2
 -5.485855155036579e-06    1    1    5    3
 -0.0001598108316410163    1    1    5    4
 0.4660272586304886    1    1    5    5
 0.001857520854850664    1    1    6    1
 0.498303872168293    1    1    6    6
 -0.00165711164178371    1    1    7    1
 -9.216138470151755e-06    1    1    7    6
 0.493942423428687    1    1    7    7
 0.002102785007501635    1    1    8    1
 -8.701002250420313e-06    1    1    8    6
 8.514336546962551e-06    1    1    8    7
 0.4903133458338005    1    1    8    8
 -3.902729274827232e-05    1    1    9    1
 1.599532395925706e-07    1    1    9    6
 -1.491240300047681e-07    1    1    9    7
 -2.629010128293968e-07    1    1    9    8
 0.4863852869136782    1    1    9    9
 -0.005547827416155173    1    1   10    1
 2.380455228062036e-05    1    1   10    6
 -2.16651491000611e-05    1    1   10    7
 -3.948168956054882e-05    1    1   10    8
 7.420085957168077e-07    1    1   10    9
 0.4736039295172075    1    1   10   10
 -0.01397770886102365    1    1   11    1
 -8.137663218224685e-05    1    1   11    6
 7.336869599938733e-05    1    1   11    7
 6.296448035659725e-05    1    1   11    8
 -1.184831160652475e-06    1    1   11    9
 -0.0001768870569712341    1    1   11   10
 0.4609740476355406    1    1   11   11
 0.004126112099368438    1    1   12    2
 -4.799519401315079e-05    1    1   12    3
 -0.002719832722462057    1    1   12    4
 0.001170001511681734    1    1   12    5
 0.4941873878101607    1    1   12   12
 -6.42165405195379e-05    1    1   13    2
 0.004189335572003876    1    1   13    3
 -0.001577741244275836    1    1   13    4
 -0.001338237765574253    1    1   13    5
 1.142752074358448e-06    1    1   13   12
 0.4902894306135744    1    1   13   13
 0.002752077528271576    1    1   14    2
 0.001738867806054263    1    1   14    3
 -0.007633986902461664    1    1   14    4
 -0.009629726627874671    1    1   14    5
 1.197240520991354e-05    1    1   14   12
 1.70407831551029e-05    1    1   14   13
 0.4853291929318394    1    1   14   14
 0.001092083047750588    1    1   15    2
 -0.001391374669197121    1    1   15    3
 0.009253033329115642    1    1   15    4
 -0.01400859470181851    1    1   15    5
 -1.854693798046406e-05    1    1   15   12
 -1.677094487134538e-06    1    1   15   13
 2.844614678900598e-05    1    1   15   14
 0.4647991786703525    1    1   15   15
 0.0004790935024401484    1    1   16    1
 0.001812621139816169    1    1   16    6
 -0.001636332180039562    1    1   16    7
 -0.002129914072225441    1    1   16    8
 4.009200884735112e-05    1    1   16    9
 0.006068496455198662    1    1   16   10
 -0.01448440448823497    1    1   16   11
 0.4833716352418144    1    1   16   16
 0.4942986082318626    2    1    2    1
 7.007393080939159e-06    2    1    3    1
 -5.59287271355175e-05    2    1    4    1
 -9.676645225894977e-05    2    1    5    1
 0.3000218525114567    2    1    6    2
 0.1866714279811166    2    1    6    3
 -0.358840801304848    2    1    6    4
 -0.07252068394832459    2    1    6    5
 -0.1373460663026899    2    1    7    2
 0.2241359361634279    2    1    7    3
 0.07954714702573353    2    1    7    4
 0.006175181394935059    2    1    7    5
 0.2917702203353847    2    1    8    2
 0.02011035561616375    2    1    8    3
 0.2841958673477706    2    1    8    4
 -0.2819859459067866    2    1    8    5
 0.06025005622022146    2    1    9    2
 -0.2592973110933686    2    1    9    3
 -0.07194771371847575    2    1    9    4
 0.03520369263343456    2    1    9    5
 -0.1669676256728087    2    1   10    2
 0.007554727083845646    2    1   10    3
 -0.01021387925024194    2    1   10    4
 -0.05092803484498525    2    1   10    5
 -0.1846960822707714    2    1   11    2
 -0.001466688828342022    2    1   11    3
 -0.006643424998473433    2    1   11    4
 -0.02670402429334254    2    1   11    5
 0.004126112099368435    2    1   12    1
 0.2958649626885004    2    1   12    6
 -0.1384110931336474    2    1   12    7
 -0.294897930824531    2    1   12    8
 -0.06130405200806387    2    1   12    9
 0.1792321635625577    2    1   12   10
 -0.1918286844220886    2    1   12   11
 -6.421654051952401e-05    2    1   13    1
 0.1788403016159962    2    1   13    6
 0.2231961339688176    2    1   13    7
 -0.02493250828304918    2    1   13    8
 0.2625284368890504    2    1   13    9
 -0.007293418059820158    2    1   13   10
 -0.001986611818392599    2    1   13   11
 0.002752077528271571    2    1   14    1
 0.353409477153844    2    1   14    6
 -0.07472463907983358    2    1   14    7
 0.2789182509824589    2    1   14    8
 -0.06820155610190057    2    1   14    9
 -0.01084366746307211    2    1   14   10
 0.00476146801671861    2    1   14   11
 0.001092083047750588    2    1   15    1
 -0.06664647620107887    2    1   15    6
 0.006438641271009638    2    1   15    7
 0.2697349752359187    2    1   15    8
 -0.03397778067101164    2    1   15    9
 0.05040341303661373    2    1   15   10
 -0.02614018870638634    2    1   15   11
 0.004347665215933994    2    1   16    2
 -2.930886075611199e-05    2    1   16    3
 -0.002727378737121792    2    1   16    4
 0.001129725002531976    2    1   16    5
 0.4835413461941038    2    1   16   12
 0.0005887348653991007    2    1   16   13
 0.002550279679660101    2    1   16   14
 -0.00123711870007386    2    1   16   15
 0.4942986082318626    2    2    1    1
 1.016724899024267    2    2    2    2
 0.02784207796176785    2    2    3    2
 0.3108230996921778    2    2    3    3
 -0.07167356626491199    2    2    4    2
 -0.04846214079146072    2    2    4    3
 0.4468956320551986    2    2    4    4
 -0.1801655960227121    2    2    5    2
 -0.05542641553391259    2    2    5    3
 -0.1139454030891842    2    2    5    4
 0.1823819698925954    2    2    5    5
 0.3000218525114567    2    2    6    1
 1.016730171221041    2    2    6    6
 -0.1373460663026899    2    2    7    1
 -0.1118185963334751    2    2    7    6
 0.3028856817010444    2    2    7    7
 0.2917702203353847    2    2    8    1
 -0.002731168500550612    2    2    8    6
 0.002929732936701182    2    2    8    7
 0.9845204303226828    2    2    8    8
 0.06025005622022144    2    2    9    1
 -0.0001816392744696803    2    2    9    6
 0.0001223763792672627    2    2    9    7
 -0.07122128111251362    2    2    9    8
 0.3202626150011756    2    2    9    9
 -0.1669676256728087    2    2   10    1
 0.006412013031959901    2    2   10    6
 -0.003618805514176155    2    2   10    7
 -0.1600578472752957    2    2   10    8
 -0.05544130327887844    2    2   10    9
 0.1340196216739209    2    2   10   10
 -0.1846960822707714    2    2   11    1
 -0.2094215956698766    2    2   11    6
 0.09981498442972007    2    2   11    7
 0.005296231365997614    2    2   11    8
 0.001218340283797834    2    2   11    9
 -0.007039565865355651    2    2   11   10
 0.1454608639421393    2    2   11   11
 0.0475635081399145    2    2   12    2
 0.07208766678736619    2    2   12    3
 -0.3982388326798008    2    2   12    4
 0.1121955352907129    2    2   12    5
 1.009247010906746    2    2   12   12
 0.06666892865479439    2    2   13    2
 0.02718920219779613    2    2   13    3
 -0.1459445860345952    2    2   13    4
 0.01100297198588148    2    2   13    5
 0.02418330033636062    2    2   13   12
 0.3081336466224297    2    2   13   13
 0.3929987662603787    2    2   14    2
 0.146097292848177    2    2   14    3
 -0.09461280222758842    2    2   14    4
 -0.2168296784038423    2    2   14    5
 0.06798846927892103    2    2   14   12
 0.04222830356385305    2    2   14   13
 0.4304968657720928    2    2   14   14
 0.1070956581322426    2    2   15    2
 0.008019348825374821    2    2   15    3
 0.2096960422453325    2    2   15    4
 -0.15171681196725    2    2   15    5
 -0.1705992399183935    2    2   15   12
 -0.05373165200647304    2    2   15   13
 0.1085344032561641    2    2   15   14
 0.1666168760344899    2    2   15   15
 0.004347665215933991    2    2   16    1
 0.2919077749720762    2    2   16    6
 -0.135651806301562    2    2   16    7
 -0.2876469163162242    2    2   16    8
 -0.05989928545585326    2    2   16    9
 0.1750713832694691    2    2   16   10
 -0.1877158279047463    2    2   16   11
 0.4731420079061325    2    2   16   16
 7.00739308093569e-06    3    1    2    1
 0.4903879021373883    3    1    3    1
 -8.604834385494801e-05    3    1    4    1
 -5.485855155043518e-06    3    1    5    1
 0.1866714279811165    3    1    6    2
 -0.2609960792169287    3    1    6    3
 0.0147677464799243    3    1    6    4
 0.01588520556865771    3    1    6    5
 0.2241359361634278    3    1    7    2
 -0.01169553480635258    3    1    7    3
 0.4005008600881883    3    1    7    4
 0.09748947842274742    3    1    7    5
 0.02011035561616375    3    1    8    2
 -0.2596093641914324    3    1    8    3
 -0.008604937403572346    3    1    8    4
 -0.03068046155766106    3    1    8    5
 -0.2592973110933686    3    1    9    2
 -0.1334511318886929    3    1    9    3
 0.2311914483758068    3    1    9    4
 -0.3055556220045142    3    1    9    5
 0.007554727083845642    3    1   10    2
 -0.1991240391884102    3    1   10    3
 -0.0701480369218342    3    1   10    4
 -0.06747608968079029    3    1   10    5
 -0.001466688828342008    3    1   11    2
 -0.2035890631538422    3    1   11    3
 -0.01431047823892003    3    1   11    4
 0.01391546018330269    3    1   11    5
 -4.799519401314038e-05    3    1   12    1
 0.1854880395865502    3    1   12    6
 0.226362239440989    3    1   12    7
 -0.02090159775403488    3    1   12    8
 0.2630397716542431    3    1   12    9
 -0.007458395242742565    3    1   12   10
 -0.001431077772168745    3    1   12   11
 0.004189335572003862    3    1   13    1
 -0.2563288765976575    3    1   13    6
 -0.005099752822103388    3    1   13    7
 0.2585212963095886    3    1   13    8
 0.1316620069046074    3    1   13    9
 0.2137840453524458    3    1   13   10
 -0.2119632442654912    3    1   13   11
 0.001738867806054228    3    1   14    1
 -0.01731331472650403    3    1   14    6
 -0.3927229405744714    3    1   14    7
 -0.003793784873029187    3    1   14    8
 0.2323332032170084    3    1   14    9
 -0.07043458621559337    3    1   14   10
 0.0100613805116693    3    1   14   11
 -0.0013913746691971    3    1   15    1
 0.01435777364311206    3    1   15    6
 0.08865300054287617    3    1   15    7
 0.02888732185620615    3    1   15    8
 0.2929467166395681    3    1   15    9
 0.06555185390348786    3    1   15   10
 0.01581444340740963    3    1   15   11
 -2.93088607561432e-05    3    1   16    2
 0.004455493404616684    3    1   16    3
 -0.001663114979614895    3    1   16    4
 -0.001457935327844257    3    1   16    5
 -0.0006283237118913627    3    1   16   12
 0.4834666699972412    3    1   16   13
 0.006985074917922349    3    1   16   14
 -5.629431695019713e-05    3    1   16   15
 7.00739308093222e-06    3    2    1    1
 0.02784207796176781    3    2    2    2
 0.3108230996921778    3    2    3    2
 -0.04511384881143227    3    2    3    3
 -0.04846214079146072    3    2    4    2
 0.06259294508214247    3    2    4    3
 0.01638597236944328    3    2    4    4
 -0.05542641553391259    3    2    5    2
 0.2107049976183847    3    2    5    3
 0.0329204450989678    3    2    5    4
 0.0008912763870770954    3    2    5    5
 0.1866714279811166    3    2    6    1
 0.004226076058674795    3    2    6    6
 0.2241359361634279    3    2    7    1
 -0.3315106172511523    3    2    7    6
 -0.005579347585609519    3    2    7    7
 0.02011035561616375    3    2    8    1
 -0.0006651583003240016    3    2    8    6
 -0.0015400980580695    3    2    8    7
 0.02695991789298124    3    2    8    8
 -0.2592973110933686    3    2    9    1
 0.0009194805090333335    3    2    9    6
 -0.0005966497212596039    3    2    9    7
 0.280633642519486    3    2    9    8
 -0.03246325811904052    3    2    9    9
 0.007554727083845639    3    2   10    1
 0.003865400483556278    3    2   10    6
 0.005605049349770551    3    2   10    7
 -0.0159796342849903    3    2   10    8
 0.2342129601084342    3    2   10    9
 0.005587276006517452    3    2   10   10
 -0.001466688828342008    3    2   11    1
 -0.1407642950100822    3    2   11    6
 -0.1908125793486577    3    2   11    7
 0.0005416794996532012    3    2   11    8
 -0.005265322338937096    3    2   11    9
 0.0002598249717141636    3    2   11   10
 0.001261084431543213    3    2   11   11
 0.07208766678736618    3    2   12    2
 0.03100462145382487    3    2   12    3
 -0.1479657866617052    3    2   12    4
 0.007779351268914237    3    2   12    5
 0.02329300642909708    3    2   12   12
 0.02718920219779613    3    2   13    2
 -0.1538405418801705    3    2   13    3
 0.3126427287194951    3    2   13    4
 -0.1126311032797288    3    2   13    5
 0.312019965981574    3    2   13   12
 -0.03819126891658807    3    2   13   13
 0.146097292848177    3    2   14    2
 -0.3098653935683465    3    2   14    3
 -0.0859707106349417    3    2   14    4
 0.02359914551488006    3    2   14    5
 0.04868880759855636    3    2   14   12
 -0.05702972161986789    3    2   14   13
 0.01414903952190684    3    2   14   14
 0.008019348825374828    3    2   15    2
 -0.1083853161177136    3    2   15    3
 -0.02429399834980654    3    2   15    4
 -0.004360183409703217    3    2   15    5
 -0.05244363799080164    3    2   15   12
 0.2007852369445918    3    2   15   13
 -0.02920897961092118    3    2   15   14
 0.0007437450587275169    3    2   15   15
 -2.930886075614321e-05    3    2   16    1
 0.1811688039447766    3    2   16    6
 0.219328582937447    3    2   16    7
 -0.02022482732827609    3    2   16    8
 0.2578183618796513    3    2   16    9
 -0.007577097040552295    3    2   16   10
 -0.001644000092105707    3    2   16   11
 1.243921851539631e-06    3    2   16   16
 0.4903879021373884    3    3    1    1
 0.3108230996921777    3    3    2    2
 -0.04511384881143227    3    3    3    2
 0.9686868779532963    3    3    3    3
 0.06259294508214247    3    3    4    2
 -0.04024813953980862    3    3    4    3
 0.4460514639967462    3    3    4    4
 0.2107049976183847    3    3    5    2
 0.1116897208735111    3    3    5    3
 -0.05562329483319436    3    3    5    4
 0.2236544314374804    3    3    5    5
 -0.2609960792169288    3    3    6    1
 0.4114268862447019    3    3    6    6
 -0.01169553480635262    3    3    7    1
 0.2082488148200428    3    3    7    6
 0.8778365032230674    3    3    7    7
 -0.2596093641914324    3    3    8    1
 0.002509907403772188    3    3    8    6
 -0.001827971462120373    3    3    8    7
 0.2815213303936141    3    3    8    8
 -0.1334511318886929    3    3    9    1
 -1.177477145824808e-15    3    3    9    3
 0.0004378166327803051    3    3    9    6
 -0.0003170815258581314    3    3    9    7
 0.149913787039444    3    3    9    8
 0.941987261139922    3    3    9    9
 -0.1991240391884102    3    3   10    1
 -0.0055444708227385    3    3   10    6
 0.0001217522133883255    3    3   10    7
 0.2304220444174177    3    3   10    8
 0.119293253334438    3    3   10    9
 0.2150087451640223    3    3   10   10
 -0.2035890631538422    3    3   11    1
 0.2162596556465724    3    3   11    6
 -0.009728210431430745    3    3   11    7
 -0.00378251117330122    3    3   11    8
 -0.002721814447720837    3    3   11    9
 -0.008906026687890695    3    3   11   10
 0.1763114777079405    3    3   11   11
 0.03100462145382487    3    3   12    2
 -0.1598492152804407    3    3   12    3
 0.3155863169635093    3    3   12    4
 -0.1123275198791886    3    3   12    5
 0.3160526222761295    3    3   12   12
 -0.1538405418801706    3    3   13    2
 -0.03448372576704655    3    3   13    3
 0.02126165201584613    3    3   13    4
 -0.1449139011010704    3    3   13    5
 -0.04088683442793384    3    3   13   12
 0.9673101185597776    3    3   13   13
 -0.3098653935683465    3    3   14    2
 -0.01820050248490891    3    3   14    3
 -0.1983251300603561    3    3   14    4
 -0.2134414778331689    3    3   14    5
 -0.05954543505069494    3    3   14   12
 0.04424701752137183    3    3   14   13
 0.4346566170234191    3    3   14   14
 -0.1083853161177136    3    3   15    2
 -0.1398479574813476    3    3   15    3
 0.2008438241220331    3    3   15    4
 -0.1767498838115669    3    3   15    5
 0.2020869061631864    3    3   15   12
 0.108492428869929    3    3   15   13
 0.05931802276217648    3    3   15   14
 0.2040847690609705    3    3   15   15
 0.004455493404616657    3    3   16    1
 -0.2534062708745803    3    3   16    6
 -0.0109725878017234    3    3   16    7
 0.254732656372316    3    3   16    8
 0.1327138048281256    3    3   16    9
 0.2096770839236547    3    3   16   10
 -0.2089922417036352    3    3   16   11
 0.4768398939893417    3    3   16   16
 -5.592872713551403e-05    4    1    2    1
 -8.60483438549272e-05    4    1    3    1
 0.4860010409743251    4    1    4    1
 -0.0001598108316410128    4    1    5    1
 -0.358840801304848    4    1    6    2
 0.01476774647992431    4    1    6    3
 -0.01291786003166492    4    1    6    4
 -0.01211367526611297    4    1    6    5
 0.07954714702573353    4    1    7    2
 0.4005008600881883    4    1    7    3
 0.1275930192182303    4    1    7    4
 0.0174663339668809    4    1    7    5
 0.2841958673477706    4    1    8    2
 -0.008604937403572353    4    1    8    3
 0.008612371136366813    4    1    8    4
 -0.03703679716344344    4    1    8    5
 -0.07194771371847573    4    1    9    2
 0.2311914483758068    4    1    9    3
 0.0767765407530622    4    1    9    4
 -0.04593676888840414    4    1    9    5
 -0.01021387925024195    4    1   10    2
 -0.0701480369218342    4    1   10    3
 0.2116193259123123    4    1   10    4
 0.3811611461270827    4    1   10    5
 -0.006643424998473453    4    1   11    2
 -0.01431047823892003    4    1   11    3
 -0.1652744621532435    4    1   11    4
 -0.1506409836694912    4    1   11    5
 -0.002719832722462038    4    1   12    1
 -0.3552002122192406    4    1   12    6
 0.078752370864888    4    1   12    7
 -0.2875474981242931    4    1   12    8
 0.07318113901827114    4    1   12    9
 0.009327581328495026    4    1   12   10
 -0.007100750169126511    4    1   12   11
 -0.001577741244275829    4    1   13    1
 0.01401228692842603    4    1   13    6
 0.3990379918492759    4    1   13    7
 0.006813272785568575    4    1   13    8
 -0.2342137903000181    4    1   13    9
 0.07062015491040947    4    1   13   10
 -0.0160148733216955    4    1   13   11
 -0.007633986902461668    4    1   14    1
 0.01139899799323946    4    1   14    6
 -0.1196772756863049    4    1   14    7
 0.008139243127897093    4    1   14    8
 0.07339723277434676    4    1   14    9
 0.2153482953985749    4    1   14   10
 0.1805046101552159    4    1   14   11
 0.009253033329115642    4    1   15    1
 -0.01107335017574634    4    1   15    6
 0.01626087602963165    4    1   15    7
 0.0351152601198306    4    1   15    8
 0.04425899639771217    4    1   15    9
 -0.368679092071518    4    1   15   10
 -0.1608978029601013    4    1   15   11
 -0.002727378737121782    4    1   16    2
 -0.001663114979614874    4    1   16    3
 0.007806900905535014    4    1   16    4
 0.009667071481120268    4    1   16    5
 0.002556317561239625    4    1   16   12
 0.00702272614002319    4    1   16   13
 -0.4833555862999523    4    1   16   14
 -0.002992280513444544    4    1   16   15
 -5.592872713550373e-05    4    2    1    1
 -0.07167356626491199    4    2    2    2
 -0.04846214079146072    4    2    3    2
 0.0625929450821425    4    2    3    3
 0.4468956320551986    4    2    4    2
 0.0163859723694433    4    2    4    3
 0.02135866205371934    4    2    4    4
 -0.1139454030891842    4    2    5    2
 0.03292044509896782    4    2    5    3
 -0.009115920386443753    4    2    5    4
 -0.01232845048551385    4    2    5    5
 -0.358840801304848    4    2    6    1
 -0.3931082700388031    4    2    6    6
 0.07954714702573351    4    2    7    1
 0.2058414490093215    4    2    7    6
 0.3574795593567757    4    2    7    7
 0.2841958673477706    4    2    8    1
 -0.0001527255529462641    4    2    8    6
 0.0008821086745237895    4    2    8    7
 0.3891449670294101    4    2    8    8
 -0.07194771371847575    4    2    9    1
 0.0002190805981258602    4    2    9    6
 -0.0001657410375995953    4    2    9    7
 0.07220913010928653    4    2    9    8
 -0.2958819582256296    4    2    9    9
 -0.01021387925024195    4    2   10    1
 -0.007371672451885464    4    2   10    6
 0.001770524137616702    4    2   10    7
 -0.1949402732835451    4    2   10    8
 0.0649146118096116    4    2   10    9
 -0.08507530372158902    4    2   10   10
 -0.00664342499847344    4    2   11    1
 0.2712036459835662    4    2   11    6
 -0.0678377014070526    4    2   11    7
 0.005557456799779182    4    2   11    8
 -0.001468897177400463    4    2   11    9
 -0.001831959044178024    4    2   11   10
 0.02750771903501904    4    2   11   11
 -0.3982388326798008    4    2   12    2
 -0.1479657866617052    4    2   12    3
 0.09087957998500527    4    2   12    4
 0.2227625778786709    4    2   12    5
 -0.06029299867673907    4    2   12   12
 -0.1459445860345952    4    2   13    2
 0.3126427287194951    4    2   13    3
 0.09147623002838219    4    2   13    4
 -0.02458747390963274    4    2   13    5
 -0.03788493159968712    4    2   13   12
 0.05756942380294539    4    2   13   13
 -0.09461280222758846    4    2   14    2
 -0.08597071063494172    4    2   14    3
 -0.04088930759853214    4    2   14    4
 -0.03615062500911184    4    2   14    5
 -0.4379466859755983    4    2   14   12
 -0.01545783999358138    4    2   14   13
 0.01496129709620389    4    2   14   14
 0.2096960422453325    4    2   15    2
 -0.02429399834980654    4    2   15    3
 0.03467513543495526    4    2   15    4
 0.03381026314679463    4    2   15    5
 -0.1133793657178033    4    2   15   12
 0.0318466681753202    4    2   15   13
 0.01020626012029301    4    2   15   14
 -0.01218731260784771    4    2   15   15
 -0.002727378737121791    4    2   16    1
 -0.3476580734300549    4    2   16    6
 0.07691340057703144    4    2   16    7
 -0.2812210161195428    4    2   16    8
 0.0715474838313383    4    2   16    9
 0.01129839774156804    4    2   16   10
 -0.005605199352956639    4    2   16   11
 -1.07847080486397e-05    4    2   16   16
 -8.60483438549272e-05    4    3    1    1
 -0.04846214079146072    4    3    2    2
 0.06259294508214247    4    3    3    2
 -0.04024813953980861    4    3    3    3
 0.01638597236944328    4    3    4    2
 0.4460514639967462    4    3    4    3
 0.1132355726042347    4    3    4    4
 0.03292044509896781    4    3    5    2
 -0.05562329483319434    4    3    5    3
 -0.05912563411920077    4    3    5    4
 -0.02459897919871519    4    3    5    5
 0.01476774647992431    4    3    6    1
 -0.2831886145533174    4    3    6    6
 0.4005008600881883    4    3    7    1
 -0.3499271898511767    4    3    7    6
 0.2662444525712235    4    3    7    7
 -0.008604937403572339    4    3    8    1
 0.0002386546561323517    4    3    8    6
 -0.003183980827048502    4    3    8    7
 0.03630482227592113    4    3    8    8
 0.2311914483758068    4    3    9    1
 -0.0008056763413571272    4    3    9    6
 0.0006150231453969536    4    3    9    7
 -0.2504127383094761    4    3    9    8
 0.07820625864455991    4    3    9    9
 -0.07014803692183419    4    3   10    1
 0.0003795302451377755    4    3   10    6
 0.009999262516307296    4    3   10    7
 0.02321665167498386    4    3   10    8
 -0.2092094736398388    4    3   10    9
 -0.1093964009530966    4    3   10   10
 -0.01431047823892004    4    3   11    1
 -0.009909108158472596    4    3   11    6
 -0.3419923511706971    4    3   11    7
 0.0006218297434148626    4    3   11    8
 0.004683258790236088    4    3   11    9
 -0.004388494589206052    4    3   11   10
 0.01193339002130845    4    3   11   11
 -0.1479657866617052    4    3   12    2
 0.3155863169635092    4    3   12    3
 0.09199950073485193    4    3   12    4
 -0.02530394586028815    4    3   12    5
 -0.04442395525138167    4    3   12   12
 0.3126427287194951    4    3   13    2
 0.02126165201584617    4    3   13    3
 0.2025590845925348    4    3   13    4
 0.2153692402772021    4    3   13    5
 0.06006290349559072    4    3   13   12
 -0.02503748911423607    4    3   13   13
 -0.08597071063494169    4    3   14    2
 -0.1983251300603561    4    3   14    3
 -0.09948178573270329    4    3   14    4
 -0.0951173787614811    4    3   14    5
 -0.01459724622847383    4    3   14   12
 -0.4404435105412559    4    3   14   13
 0.09477082497184317    4    3   14   14
 -0.02429399834980654    4    3   15    2
 0.2008438241220331    4    3   15    3
 0.09289923651003755    4    3   15    4
 0.02053045765107876    4    3   15    5
 0.03208023706959377    4    3   15   12
 -0.05941478010617329    4    3   15   13
 0.05959926749929736    4    3   15   14
 -0.02523569368047558    4    3   15   15
 -0.001663114979614878    4    3   16    1
 0.01444377597997578    4    3   16    6
 0.39190689768121    4    3   16    7
 0.007192203441253753    4    3   16    8
 -0.2298567874410041    4    3   16    9
 0.07271658428300917    4    3   16   10
 -0.0131814718689306    4    3   16   11
 -1.785966274511904e-05    4    3   16   16
 0.4860010409743251    4    4    1    1
 0.4468956320551986    4    4    2    2
 0.01638597236944329    4    4    3    2
 0.4460514639967463    4    4    3    3
 0.02135866205371932    4    4    4    2
 0.1132355726042347    4    4    4    3
 0.6832587493994245    4    4    4    4
 -0.00911592038644376    4    4    5    2
 -0.05912563411920077    4    4    5    3
 0.2211824321069499    4    4    5    4
 0.363942787446413    4    4    5    5
 -0.01291786003166492    4    4    6    1
 0.5136688704498157    4    4    6    6
 0.1275930192182303    4    4    7    1
 -0.09809955518590237    4    4    7    6
 0.736439875878835    4    4    7    7
 0.008612371136366826    4    4    8    1
 0.0003443290181429835    4    4    8    6
 -0.001462775093344753    4    4    8    7
 0.3391206614564076    4    4    8    8
 0.07677654075306219    4    4    9    1
 -0.000272811881286857    4    4    9    6
 0.0002088245422754496    4    4    9    7
 -0.08339159545979939    4    4    9    8
 0.2759015632940778    4    4    9    9
 0.2116193259123123    4    4   10    1
 -0.001078886040936705    4    4   10    6
 0.003890881983587457    4    4   10    7
 -0.0588419905791779    4    4   10    8
 -0.06804804793717453    4    4   10    9
 0.8127446024275505    4    4   10   10
 -0.1652744621532435    4    4   11    1
 0.02592401518774406    4    4   11    6
 -0.1249745890050886    4    4   11    7
 0.0001967240243705975    4    4   11    8
 0.001562281679117101    4    4   11    9
 0.01241209123698942    4    4   11   10
 0.2259198715757384    4    4   11   11
 0.09087957998500527    4    4   12    2
 0.09199950073485194    4    4   12    3
 0.04277577296082582    4    4   12    4
 0.03606145650943846    4    4   12    5
 0.4457078650156287    4    4   12   12
 0.09147623002838219    4    4   13    2
 0.2025590845925349    4    4   13    3
 0.1031840971820956    4    4   13    4
 0.0974646522436909    4    4   13    5
 0.01607120956687828    4    4   13   12
 0.4468340134217006    4    4   13   13
 -0.04088930759853213    4    4   14    2
 -0.09948178573270332    4    4   14    3
 0.01160889268629837    4    4   14    4
 0.1022897523403546    4    4   14    5
 -0.0219901361714746    4    4   14   12
 -0.1126665860559553    4    4   14   13
 0.6880307822377826    4    4   14   14
 0.03467513543495524    4    4   15    2
 0.09289923651003756    4    4   15    3
 -0.09493196687590229    4    4   15    4
 -0.2501229289466999    4    4   15    5
 -0.008233031294019276    4    4   15   12
 -0.05742595641194376    4    4   15   13
 -0.2245871148659178    4    4   15   14
 0.3505987064271037    4    4   15   15
 0.007806900905535023    4    4   16    1
 -0.01293557277370912    4    4   16    6
 0.1253040504891461    4    4   16    7
 -0.009722559168289761    4    4   16    8
 -0.07631632461112164    4    4   16    9
 -0.2109215918830121    4    4   16   10
 -0.1791099295811047    4    4   16   11
 0.4815235139432477    4    4   16   16
 -9.676645225894977e-05    5    1    2    1
 -5.485855155043518e-06    5    1    3    1
 -0.0001598108316410093    5    1    4    1
 0.4660272586304884    5    1    5    1
 -0.07252068394832457    5    1    6    2
 0.01588520556865771    5    1    6    3
 -0.01211367526611297    5    1    6    4
 -0.0224753890602557    5    1    6    5
 0.006175181394935055    5    1    7    2
 0.09748947842274742    5    1    7    3
 0.0174663339668809    5    1    7    4
 0.01818521123753005    5    1    7    5
 -0.2819859459067866    5    1    8    2
 -0.03068046155766106    5    1    8    3
 -0.03703679716344345    5    1    8    4
 -0.03661193508834505    5    1    8    5
 0.03520369263343457    5    1    9    2
 -0.3055556220045142    5    1    9    3
 -0.04593676888840414    5    1    9    4
 -0.003654571937944608    5    1    9    5
 -0.05092803484498525    5    1   10    2
 -0.06747608968079029    5    1   10    3
 0.3811611461270827    5    1   10    4
 0.1431995537428735    5    1   10    5
 -0.02670402429334254    5    1   11    2