 &FCI NORB=  16,NELEC= 8,MS2=2,
  ORBSYM=1,1,1,1,1,1,1,1,1,1,1,1,1,1,1,1
  ISYM=1,
 &END
 0.2500809493775882    1    1    1    1
 0.2488711377998201    1    1    2    2
 0.001704359655536829    1    1    3    2
 0.2502322865772844    1    1    3    3
 0.002316427361954598    1    1    4    2
 0.001862596751657614    1    1    4    3
 0.2504707398927651    1    1    4    4
 -0.0003581068626932844    1    1    5    2
 0.002703235550531541    1    1    5    3
 -0.0003885948151227444    1    1    5    4
 0.2509723395019572    1    1    5    5
 0.001012213010746228    1    1    6    1
 0.2551811866999731    1    1    6    6
 0.002344905357427266    1    1    7    1
 -5.663150124990554e-06    1    1    7    6
 0.2541382851597537    1    1    7    7
 0.003574376189917666    1    1    8    1
 2.249948769961616e-05    1    1    8    6
 -3.558140576818882e-05    1    1    8    7
 0.2497483986919045    1    1    8    8
 0.0007067915922011891    1    1    9    1
 -2.077806094611919e-06    1    1    9    6
 8.080779882575773e-06    1    1    9    7
 -7.323424979243688e-07    1    1    9    8
 0.2489256448740343    1    1    9    9
 -0.0006421859923921684    1    1   10    1
 2.477082180252997e-06    1    1   10    6
 -8.641473785063469e-06    1    1   10    7
 7.258817714807003e-06    1    1   10    8
 -2.197999738079437e-06    1    1   10    9
 0.247391652010432    1    1   10   10
 -0.0002826947581506342    1    1   11    1
 -1.803530747239255e-06    1    1   11    6
 2.770043269678233e-06    1    1   11    7
 -6.176165166662091e-06    1    1   11    8
 6.497648371152858e-07    1    1   11    9
 -7.749015393095056e-07    1    1   11   10
 0.244614367874761    1    1   11   11
 -0.002021548926904191    1    1   12    2
 -0.001528731075972835    1    1   12    3
 0.001538641982671441    1    1   12    4
 0.002224019366241533    1    1   12    5
 0.2540699512527814    1    1   12   12
 -0.0007570338843164021    1    1   13    2
 -0.0005511713877063805    1    1   13    3
 -0.00271354237363363    1    1   13    4
 0.001307049649036258    1    1   13    5
 -6.090039505483348e-06    1    1   13   12
 0.2516977460242401    1    1   13   13
 -0.0004897704140352406    1    1   14    2
 0.001945978863419951    1    1   14    3
 0.001467110834547487    1    1   14    4
 0.001748580690580155    1    1   14    5
 3.47272423937622e-05    1    1   14   12
 0.0002017626317987794    1    1   14   13
 0.2470313472450796    1    1   14   14
 -0.00163452710915608    1    1   15    2
 0.0002595427431395757    1    1   15    3
 -0.001296959960447566    1    1   15    4
 -0.001794841816577607    1    1   15    5
 -0.0001643074933839672    1    1   15   12
 -9.481672077803552e-05    1    1   15   13
 -7.537640093584382e-05    1    1   15   14
 0.2466544517060719    1    1   15   15
 -0.0001521770593748278    1    1   16    1
 0.001053801168192498    1    1   16    6
 -0.002327377558167948    1    1   16    7
 0.003582005483477639    1    1   16    8
 -0.0005569162278469333    1    1   16    9
 0.0006145207289128731    1    1   16   10
 -0.0002874567915017926    1    1   16   11
 0.2499195153115536    1    1   16   16
 0.2488711377998201    2    1    2    1
 0.001704359655536825    2    1    3    1
 0.002316427361954605    2    1    4    1
 -0.0003581068626932853    2    1    5    1
 0.08820298638274728    2    1    6    2
 0.09512096312989016    2    1    6    3
 0.1064100706115503    2    1    6    4
 -0.04304020454262916    2    1    6    5
 -0.1073484604159856    2    1    7    2
 0.03241500940880142    2    1    7    3
 0.007305184370364266    2    1    7    4
 0.02214091188964949    2    1    7    5
 -0.06403861320327814    2    1    8    2
 0.1188032259468601    2    1    8    3
 0.1001298234950917    2    1    8    4
 -0.01830052897828827    2    1    8    5
 0.1318834544260477    2    1    9    2
 -0.09690180113838343    2    1    9    3
 0.131633019411061    2    1    9    4
 -0.06137588739337567    2    1    9    5
 0.02995141262654051    2    1   10    2
 0.1493423015022534    2    1   10    3
 -0.06654505880081574    2    1   10    4
 -0.04798827964540017    2    1   10    5
 -0.1144311642791853    2    1   11    2
 0.006634277957917877    2    1   11    3
 0.1307184588245306    2    1   11    4
 0.06977351152330559    2    1   11    5
 -0.002021548926904202    2    1   12    1
 -0.1299766520174269    2    1   12    6
 -0.0103807858460631    2    1   12    7
 -0.09873386391843668    2    1   12    8
 0.01688890582141957    2    1   12    9
 0.06953395569118499    2    1   12   10
 -0.05677644662430182    2    1   12   11
 -0.0007570338843164021    2    1   13    1
 -0.1003459721891325    2    1   13    6
 -0.06506671893831673    2    1   13    7
 -0.02558737050619834    2    1   13    8
 0.191729806831563    2    1   13    9
 -0.01090215327111242    2    1   13   10
 0.03529084574749711    2    1   13   11
 -0.0004897704140352441    2    1   14    1
 0.001018565062051632    2    1   14    6
 0.08105484017643834    2    1   14    7
 -0.1044472901335228    2    1   14    8
 -0.008710867264835078    2    1   14    9
 -0.07933098259001457    2    1   14   10
 -0.1811094771619793    2    1   14   11
 -0.001634527109156077    2    1   15    1
 -0.02822696207167775    2    1   15    6
 0.0464822207137307    2    1   15    7
 -0.08039258178970445    2    1   15    8
 -0.1192004842365161    2    1   15    9
 0.1390852156568333    2    1   15   10
 0.03017915086187642    2    1   15   11
 0.0006960123032098905    2    1   16    2
 0.005054044613718407    2    1   16    3
 0.003322273172148168    2    1   16    4
 -0.001346994397410765    2    1   16    5
 -0.09681889046372202    2    1   16   12
 -0.1039278514899306    2    1   16   13
 0.1850287719309018    2    1   16   14
 0.08960414249171028    2    1   16   15
 0.2488711377998201    2    2    1    1
 0.4692967128767119    2    2    2    2
 -0.04765027652874208    2    2    3    2
 0.2241809848676488    2    2    3    3
 0.008550364625965513    2    2    4    2
 0.000379089092801644    2    2    4    3
 0.2421057483771624    2    2    4    4
 -0.09050545870590249    2    2    5    2
 -0.02510938083695541    2    2    5    3
 -0.006912328403455415    2    2    5    4
 0.05487308695937149    2    2    5    5
 0.08820298638274728    2    2    6    1
 0.225658678009455    2    2    6    6
 -0.1073484604159856    2    2    7    1
 0.0003237824954951316    2    2    7    6
 0.1050442964824675    2    2    7    7
 -0.06403861320327814    2    2    8    1
 0.1362900334629816    2    2    8    6
 0.006154763681398974    2    2    8    7
 0.2273627058045555    2    2    8    8
 0.1318834544260477    2    2    9    1
 0.003896676559494243    2    2    9    6
 -0.1464601286605277    2    2    9    7
 -0.006914961157754593    2    2    9    8
 0.3978704732140667    2    2    9    9
 0.02995141262654052    2    2   10    1
 -0.0004653987472680828    2    2   10    6
 -0.0001442232059123277    2    2   10    7
 0.002221946206611388    2    2   10    8
 -0.1332796276104921    2    2   10    9
 0.2447958074405811    2    2   10   10
 -0.1144311642791853    2    2   11    1
 0.01756563493746305    2    2   11    6
 6.401660184727101e-05    2    2   11    7
 0.1679711711927815    2    2   11    8
 0.00399063895879786    2    2   11    9
 -0.001025810999537008    2    2   11   10
 0.2992861425377562    2    2   11   11
 0.02857582333403666    2    2   12    2
 -0.06389214170470192    2    2   12    3
 -0.1350039687842527    2    2   12    4
 -0.005354723575692766    2    2   12    5
 0.1757714143520236    2    2   12   12
 0.08297334755555619    2    2   13    2
 -0.1392412033671247    2    2   13    3
 0.06832798985224847    2    2   13    4
 -0.02169923532377874    2    2   13    5
 0.1049623468075363    2    2   13   12
 0.2546558103360345    2    2   13   13
 0.06367329619275054    2    2   14    2
 -0.08636225130923419    2    2   14    3
 -0.1175736441012993    2    2   14    4
 -0.02006492654330196    2    2   14    5
 -0.01471130637168565    2    2   14   12
 -0.1171702770435337    2    2   14   13
 0.3696736695140485    2    2   14   14
 -0.06907819030980303    2    2   15    2
 0.08932469639945637    2    2   15    3
 -0.1262095143896726    2    2   15    4
 0.0254854777685497    2    2   15    5
 0.03370118925248593    2    2   15   12
 -0.1236452478956181    2    2   15   13
 0.05354437863778616    2    2   15   14
 0.2094425727170013    2    2   15   15
 0.0006960123032098767    2    2   16    1
 0.08371283970016269    2    2   16    6
 0.1085854774622829    2    2   16    7
 -0.05725016680652664    2    2   16    8
 -0.1349527044047661    2    2   16    9
 -0.02970586939494346    2    2   16   10
 -0.116963009178403    2    2   16   11
 0.251110758711301    2    2   16   16
 0.001704359655536825    3    1    2    1
 0.2502322865772844    3    1    3    1
 0.001862596751657586    3    1    4    1
 0.002703235550531534    3    1    5    1
 0.09512096312989016    3    1    6    2
 0.0005721131623057775    3    1    6    3
 0.1393926976656303    3    1    6    4
 -0.1198808844625738    3    1    6    5
 0.03241500940880142    3    1    7    2
 -0.01949400203723274    3    1    7    3
 0.1069947167648715    3    1    7    4
 0.1145726851870941    3    1    7    5
 0.1188032259468601    3    1    8    2
 0.05160529510906364    3    1    8    3
 0.005712294433960737    3    1    8    4
 0.1235944166604686    3    1    8    5
 -0.09690180113838345    3    1    9    2
 -0.01179552256644931    3    1    9    3
 -0.0610705950027505    3    1    9    4
 0.09152266686131624    3    1    9    5
 0.1493423015022534    3    1   10    2
 0.08863821398047156    3    1   10    3
 -0.1159947122723471    3    1   10    4
 0.008756098975551151    3    1   10    5
 0.00663427795791788    3    1   11    2
 0.05450865328720058    3    1   11    3
 -0.09675420424111353    3    1   11    4
 -0.1002136087935273    3    1   11    5
 -0.001528731075972824    3    1   12    1
 -0.05566408658718474    3    1   12    6
 0.09291316196320473    3    1   12    7
 -0.1330580182176791    3    1   12    8
 -0.04504162237381146    3    1   12    9
 0.07533482741673035    3    1   12   10
 0.05248209989454549    3    1   12   11
 -0.0005511713877063874    3    1   13    1
 -0.18718672462668    3    1   13    6
 -0.01732403031516922    3    1   13    7
 0.04911460419543792    3    1   13    8
 -0.1425392948138895    3    1   13    9
 -0.02253810826322181    3    1   13   10
 -0.01910776636473856    3    1   13   11
 0.001945978863419944    3    1   14    1
 -0.01386152741720136    3    1   14    6
 0.04922606494698911    3    1   14    7
 0.07287038280182609    3    1   14    8
 0.03847691644158045    3    1   14    9
 -0.1942262846377263    3    1   14   10
 0.08333071547222873    3    1   14   11
 0.000259542743139593    3    1   15    1
 0.010708805542115    3    1   15    6
 -0.1109673316436717    3    1   15    7
 0.07495764528875826    3    1   15    8
 -0.004276284146516311    3    1   15    9
 0.03490342581747353    3    1   15   10
 -0.1202843022709865    3    1   15   11
 0.0050540446137184    3    1   16    2
 0.004006473176417998    3    1   16    3
 -0.001865309292406433    3    1   16    4
 0.001021721284249382    3    1   16    5
 -0.1704984770901773    3    1   16   12
 0.0383348310968198    3    1   16   13
 0.01826866833083054    3    1   16   14
 -0.1776526892298926    3    1   16   15
 0.001704359655536825    3    2    1    1
 -0.04765027652874209    3    2    2    2
 0.2241809848676488    3    2    3    2
 0.08187973440111154    3    2    3    3
 0.000379089092801644    3    2    4    2
 0.01943989074573915    3    2    4    3
 0.01068211957168417    3    2    4    4
 -0.0251093808369554    3    2    5    2
 -0.004318438348901347    3    2    5    3
 -0.004643751200956803    3    2    5    4
 -0.03170494673309297    3    2    5    5
 0.09512096312989017    3    2    6    1
 0.2113870668923107    3    2    6    6
 0.03241500940880143    3    2    7    1
 0.001190062863643812    3    2    7    6
 -0.007668623400233764    3    2    7    7
 0.1188032259468601    3    2    8    1
 0.08136039950570007    3    2    8    6
 -0.002922161820899167    3    2    8    7
 -0.02303964678559163    3    2    8    8
 -0.09690180113838344    3    2    9    1
 0.0007884783898163345    3    2    9    6
 0.0973054783669822    3    2    9    7
 0.005674521821243374    3    2    9    8
 -0.2132505570217638    3    2    9    9
 0.1493423015022534    3    2   10    1
 0.0006995749444912743    3    2   10    6
 -0.1099793317046309    3    2   10    7
 -0.0007355699707441895    3    2   10    8
 -0.04180350660160831    3    2   10    9
 0.2059251451320248    3    2   10   10
 0.006634277957917877    3    2   11    1
 -0.00646539158356521    3    2   11    6
 -3.71790477587123e-05    3    2   11    7
 -0.02233558690595242    3    2   11    8
 -0.0006361450914124201    3    2   11    9
 0.0004206120819197262    3    2   11   10
 -0.173374283075154    3    2   11   11
 -0.06389214170470192    3    2   12    2
 -0.009537742543257021    3    2   12    3
 -0.09134593946862893    3    2   12    4
 0.03911869945025218    3    2   12    5
 0.1469766608436004    3    2   12   12
 -0.1392412033671248    3    2   13    2
 -0.006846637690072582    3    2   13    3
 -0.1380606535331363    3    2   13    4
 0.06043416326203624    3    2   13    5
 0.05060212813003517    3    2   13   12
 -0.05422765425199701    3    2   13   13
 -0.08636225130923421    3    2   14    2
 -0.09398552640775297    3    2   14    3
 0.1421323589429657    3    2   14    4
 0.05319767583725143    3    2   14    5
 -0.1020933057013899    3    2   14   12
 0.02799299841967587    3    2   14   13
 -0.001810698578791456    3    2   14   14
 0.08932469639945637    3    2   15    2
 0.0430224975760486    3    2   15    3
 -0.04613923364472546    3    2   15    4
 -0.05652532055569779    3    2   15    5
 0.07546544334683898    3    2   15   12
 0.0687363219177507    3    2   15   13
 -0.1235813505694715    3    2   15   14
 -0.1041449387237707    3    2   15   15
 0.0050540446137184    3    2   16    1
 0.09376178482996751    3    2   16    6
 -0.03115785736754376    3    2   16    7
 0.1127524934171433    3    2   16    8
 0.1022525973769756    3    2   16    9
 -0.1519998800721092    3    2   16   10
 0.00670664195467126    3    2   16   11
 -0.001683461397127488    3    2   16   16
 0.2502322865772844    3    3    1    1
 0.2241809848676488    3    3    2    2
 0.08187973440111153    3    3    3    2
 0.3066550930767969    3    3    3    3
 0.01943989074573915    3    3    4    2
 -0.06695699276714656    3    3    4    3
 0.2289706626145834    3    3    4    4
 -0.004318438348901348    3    3    5    2
 -0.007034789920057567    3    3    5    3
 -0.001346853146824525    3    3    5    4
 0.2441739144865477    3    3    5    5
 0.0005721131623057914    3    3    6    1
 0.3185741233523808    3    3    6    6
 -0.01949400203723273    3    3    7    1
 0.001776134861613835    3    3    7    6
 0.1958125185811163    3    3    7    7
 0.05160529510906364    3    3    8    1
 -0.0187936953554539    3    3    8    6
 -0.001267931124664271    3    3    8    7
 0.251315527686769    3    3    8    8
 -0.01179552256644932    3    3    9    1
 -0.0003977609544851395    3    3    9    6
 0.006893464377527272    3    3    9    7
 0.00124288259177446    3    3    9    8
 0.1827694699027874    3    3    9    9
 0.08863821398047157    3    3   10    1
 0.0005213104972834969    3    3   10    6
 -0.05804889385804206    3    3   10    7
 0.0002770029364836535    3    3   10    8
 -0.06245429588073795    3    3   10    9
 0.3594636536713868    3    3   10   10
 0.05450865328720059    3    3   11    1
 -0.0106213012403591    3    3   11    6
 -0.0001034695436430926    3    3   11    7
 -0.08246585268116562    3    3   11    8
 -0.001912783066634575    3    3   11    9
 0.0006889085258366456    3    3   11   10
 0.1920657021328685    3    3   11   11
 -0.009537742543257026    3    3   12    2
 0.004133028022947848    3    3   12    3
 -0.03835274732428467    3    3   12    4
 -0.03378491670382434    3    3   12    5
 0.2719490551038725    3    3   12   12
 -0.006846637690072585    3    3   13    2
 0.005921933570810341    3    3   13    3
 -0.05555344795535755    3    3   13    4
 0.0591988486362535    3    3   13    5
 -0.00232816336680326    3    3   13   12
 0.239090431847918    3    3   13   13
 -0.09398552640775297    3    3   14    2
 -0.04137630074597706    3    3   14    3
 0.06337537902759936    3    3   14    4
 0.03797120120765433    3    3   14    5
 -0.07838950091756429    3    3   14   12
 0.01309770744175227    3    3   14   13
 0.2197303118926633    3    3   14   14
 0.0430224975760486    3    3   15    2
 0.007829995084367436    3    3   15    3
 -0.005808466937994086    3    3   15    4
 0.0303602597980778    3    3   15    5
 0.02363537855451978    3    3   15   12
 -0.004236957736346494    3    3   15   13
 -0.08249757869741717    3    3   15   14
 0.2652495461099723    3    3   15   15
 0.004006473176418007    3    3   16    1
 -3.215328677535042e-05    3    3   16    6
 0.01842751539532464    3    3   16    7
 0.05044797315023169    3    3   16    8
 0.01399721865676238    3    3   16    9
 -0.09003228722621018    3    3   16   10
 0.05565361871996461    3    3   16   11
 0.2497667180954101    3    3   16   16
 0.002316427361954598    4    1    2    1
 0.0018625967516576    4    1    3    1
 0.250470739892765    4    1    4    1
 -0.0003885948151227479    4    1    5    1
 0.1064100706115503    4    1    6    2
 0.1393926976656303    4    1    6    3
 0.03429820091672847    4    1    6    4
 0.02761410896779808    4    1    6    5
 0.007305184370364266    4    1    7    2
 0.1069947167648715    4    1    7    3
 0.05222149764405513    4    1    7    4
 0.1705722850449913    4    1    7    5
 0.1001298234950917    4    1    8    2
 0.005712294433960719    4    1    8    3
 -0.01160776044435942    4    1    8    4
 -0.1380472827222148    4    1    8    5
 0.131633019411061    4    1    9    2
 -0.06107059500275051    4    1    9    3
 -0.02845466889182539    4    1    9    4
 0.06532125709299695    4    1    9    5
 -0.06654505880081575    4    1   10    2
 -0.115994712272347    4    1   10    3
 -0.02208073132515791    4    1   10    4
 0.08787547179926795    4    1   10    5
 0.1307184588245306    4    1   11    2
 -0.09675420424111351    4    1   11    3
 -0.03651652714261368    4    1   11    4
 0.05353674483784797    4    1   11    5
 0.001538641982671436    4    1   12    1
 -0.1658489281288517    4    1   12    6
 0.1626328129368053    4    1   12    7
 0.02346950626398519    4    1   12    8
 0.02397981630111414    4    1   12    9
 -0.08481259884088319    4    1   12   10
 0.01117799074716615    4    1   12   11
 -0.002713542373633627    4    1   13    1
 -0.01652006918163921    4    1   13    6
 -0.1125922919789834    4    1   13    7
 -0.1350009320800597    4    1   13    8
 -0.006395025878420939    4    1   13    9
 -0.08958601927631774    4    1   13   10
 -0.01337961474811653    4    1   13   11
 0.001467110834547466    4    1   14    1
 0.05917935615185735    4    1   14    6
 0.02528258056128923    4    1   14    7
 0.0992391005964061    4    1   14    8
 -0.1033813458589695    4    1   14    9
 0.04662960326890735    4    1   14   10
 0.1122827796520932    4    1   14   11
 -0.001296959960447571    4    1   15    1
 -0.0323680315609818    4    1   15    6
 -0.029175138947693    4    1   15    7
 -0.04302989413199196    4    1   15    8
 -0.1182918023398905    4    1   15    9
 -0.09998146473231506    4    1   15   10
 0.1361719345975967    4    1   15   11
 0.003322273172148154    4    1   16    2
 -0.001865309292406435    4    1   16    3
 -0.000722704589832807    4    1   16    4
 -0.01445722058416567    4    1   16    5
 -0.1168467904911207    4    1   16   12
 -0.1285489025118074    4    1   16   13
 -0.1659839310514929    4    1   16   14
 0.06729406134627917    4    1   16   15
 0.002316427361954601    4    2    1    1
 0.00855036462596552    4    2    2    2
 0.0003790890928016301    4    2    3    2
 0.01943989074573913    4    2    3    3
 0.2421057483771624    4    2    4    2
 0.01068211957168417    4    2    4    3
 -0.01747332944291574    4    2    4    4
 -0.006912328403455414    4    2    5    2
 -0.0046437512009568    4    2    5    3
 0.0004983443375318674    4    2    5    4
 0.002457863712933744    4    2    5    5
 0.1064100706115503    4    2    6    1
 0.192310293833253    4    2    6    6
 0.007305184370364263    4    2    7    1
 0.0001758872675515102    4    2    7    6
 0.05171844943054128    4    2    7    7
 0.1001298234950917    4    2    8    1
 0.1006380884251936    4    2    8    6
 0.003506132504918697    4    2    8    7
 -0.04356295011310051    4    2    8    8
 0.131633019411061    4    2    9    1
 0.002828728967972709    4    2    9    6
 -0.1148592572732096    4    2    9    7
 -0.006577246225143488    4    2    9    8
 0.1186694290985636    4    2    9    9
 -0.06654505880081574    4    2   10    1
 -0.0006022743253899884    4    2   10    6
 0.04453685824399273    4    2   10    7
 0.001998433212085517    4    2   10    8
 -0.05162186574404497    4    2   10    9
 -0.1805743688499822    4    2   10   10
 0.1307184588245306    4    2   11    1
 -0.03124140583176687    4    2   11    6
 -0.0002640707642857309    4    2   11    7
 -0.1957338256650719    4    2   11    8
 -0.004345803553585565    4    2   11    9
 0.001151489363093578    4    2   11   10
 -0.1385721124176045    4    2   11   11
 -0.1350039687842527    4    2   12    2
 -0.09134593946862894    4    2   12    3
 -0.0145737231331382    4    2   12    4
 0.05443958427614272    4    2   12    5
 0.08743436746587717    4    2   12   12
 0.06832798985224849    4    2   13    2
 -0.1380606535331363    4    2   13    3
 -0.05177026126124407    4    2   13    4
 0.01832982938761944    4    2   13    5
 0.0923967303971498    4    2   13   12
 0.09889107182234363    4    2   13   13
 -0.1175736441012993    4    2   14    2
 0.1421323589429657    4    2   14    3
 0.05655456074327043    4    2   14    4
 0.03385599019110377    4    2   14    5
 -0.02652376597398237    4    2   14   12
 -0.03612104786479406    4    2   14   13
 -0.2532911423833482    4    2   14   14
 -0.1262095143896726    4    2   15    2
 -0.04613923364472543    4    2   15    3
 0.006101951531525079    4    2   15    4
 0.09329670804040593    4    2   15    5
 -0.05891872134342685    4    2   15   12
 -0.07052259774019409    4    2   15   13
 -0.005161995359368033    4    2   15   14
 0.05399091345340448    4    2   15   15
 0.003322273172148168    4    2   16    1
 0.1045357117301198    4    2   16    6
 -0.00589695145799167    4    2   16    7
 0.1061248682313945    4    2   16    8
 -0.1277000790347106    4    2   16    9
 0.06616640870455774    4    2   16   10
 0.1336602163894726    4    2   16   11
 -0.002305168343625215    4    2   16   16
 0.001862596751657597    4    3    1    1
 0.0003790890928016405    4    3    2    2
 0.01943989074573915    4    3    3    2
 -0.06695699276714656    4    3    3    3
 0.01068211957168418    4    3    4    2
 0.2289706626145834    4    3    4    3
 0.07223589295545223    4    3    4    4
 -0.004643751200956807    4    3    5    2
 -0.001346853146824515    4    3    5    3
 0.00540198886298124    4    3    5    4
 0.0007604494234305693    4    3    5    5
 0.1393926976656303    4    3    6    1
 0.08831905781339289    4    3    6    6
 0.1069947167648715    4    3    7    1
 -0.004126430191327607    4    3    7    6
 0.1744598473433755    4    3    7    7
 0.005712294433960738    4    3    8    1
 0.1825329870662232    4    3    8    6
 0.0009741613712578979    4    3    8    7
 -0.04291683926426511    4    3    8    8
 -0.06107059500275051    4    3    9    1
 0.002799494262268624    4    3    9    6
 0.08090632116661327    4    3    9    7
 0.001969723267737112    4    3    9    8
 -0.03166547290201754    4    3    9    9
 -0.1159947122723471    4    3   10    1
 -0.0009418898791121949    4    3   10    6
 0.06065088132641239    4    3   10    7
 -0.001481180101855607    4    3   10    8
 0.1452858569083598    4    3   10    9
 -0.1372361904478089    4    3   10   10
 -0.09675420424111351    4    3   11    1
 0.0111824087239631    4    3   11    6
 0.000153815510263885    4    3   11    7
 0.1356920697348337    4    3   11    8
 0.003051028998290053    4    3   11    9
 -0.001067372834441864    4    3   11   10
 -0.05099470216862286    4    3   11   11
 -0.09134593946862891    4    3   12    2
 -0.03835274732428466    4    3   12    3
 0.008565100864671533    4    3   12    4
 0.1637043502173775    4    3   12    5
 0.1323725385502257    4    3   12   12
 -0.1380606535331363    4    3   13    2
 -0.05555344795535753    4    3   13    3
 -0.009885160871016988    4    3   13    4
 -0.1103049560447933    4    3   13    5
 0.09088709101061132    4    3   13   12
 -0.01325035835376522    4    3   13   13
 0.1421323589429657    4    3   14    2
 0.06337537902759939    4    3   14    3
 0.005342123274353041    4    3   14    4
 -0.05021723701925501    4    3   14    5
 0.1130137643738533    4    3   14   12
 -0.004903542715501726    4    3   14   13
 0.003963036553614002    4    3   14   14
 -0.04613923364472546    4    3   15    2
 -0.005808466937994091    4    3   15    3
 -0.009319270309387543    4    3   15    4
 -0.1218291259217621    4    3   15    5
 -0.006114121169290741    4    3   15   12
 0.09379625978561015    4    3   15   13
 0.0951518869448934    4    3   15   14
 -0.1295036554546119    4    3   15   15
 -0.001865309292406431    4    3   16    1
 0.1392674719482578    4    3   16    6
 -0.101738617923739    4    3   16    7
 0.002783563251078987    4    3   16    8
 0.06160352219167894    4    3   16    9
 0.1170963167761539    4    3   16   10
 -0.09878165916861753    4    3   16   11
 -0.001828297125711132    4    3   16   16
 0.2504707398927651    4    4    1    1
 0.2421057483771624    4    4    2    2
 0.01068211957168418    4    4    3    2
 0.2289706626145834    4    4    3    3
 -0.01747332944291574    4    4    4    2
 0.07223589295545225    4    4    4    3
 0.2765552926259676    4    4    4    4
 0.0004983443375318692    4    4    5    2
 0.005401988862981237    4    4    5    3
 0.02188523656403455    4    4    5    4
 0.2543170537026593    4    4    5    5
 0.0342982009167285    4    4    6    1
 0.2545185965533653    4    4    6    6
 0.05222149764405513    4    4    7    1
 -0.001868760266129306    4    4    7    6
 0.3293492616528865    4    4    7    7
 -0.01160776044435942    4    4    8    1
 0.05041481695827002    4    4    8    6
 -9.552759756042604e-05    4    4    8    7
 0.2395002455804895    4    4    8    8
 -0.0284546688918254    4    4    9    1
 0.000632145637363787    4    4    9    6
 0.03805638121336617    4    4    9    7
 0.001615698911022037    4    4    9    8
 0.2067505471841331    4    4    9    9
 -0.02208073132515793    4    4   10    1
 -0.0001587886900217085    4    4   10    6
 0.005641855345537532    4    4   10    7
 -0.000679653213935018    4    4   10    8
 0.0412442996720392    4    4   10    9
 0.2160716045400154    4    4   10   10
 -0.03651652714261368    4    4   11    1
 0.00520711541896106    4    4   11    6
 7.091781227602068e-05    4    4   11    7
 0.05280083442428087    4    4   11    8
 0.001182775274558882    4    4   11    9
 -0.0003796497159056675    4    4   11   10
 0.2537945934965516    4    4   11   11
 -0.0145737231331382    4    4   12    2
 0.008565100864671533    4    4   12    3
 0.01331939229008695    4    4   12    4
 0.06189339205858672    4    4   12    5
 0.2986510695718043    4    4   12   12
 -0.05177026126124409    4    4   13    2
 -0.00988516087101699    4    4   13    3
 -0.008221731035154674    4    4   13    4
 -0.03354298391138979    4    4   13    5
 0.01395867563150187    4    4   13   12
 0.2222268552056886    4    4   13   13
 0.05655456074327043    4    4   14    2
 0.005342123274353045    4    4   14    3
 -0.0003845702141944954    4    4   14    4
 -0.01005314454412823    4    4   14    5
 0.04323011085966218    4    4   14   12
 -0.003583187155631336    4    4   14   13
 0.2714158395552366    4    4   14   14
 0.006101951531525089    4    4   15    2
 -0.009319270309387543    4    4   15    3
 -0.006302800429996393    4    4   15    4
 -0.03906154552047235    4    4   15    5
 -0.003772239754451039    4    4   15   12
 0.03544756711681387    4    4   15   13
 0.01970992137564982    4    4   15   14
 0.2057574783469004    4    4   15   15
 -0.0007227045898328104    4    4   16    1
 0.03491153433716165    4    4   16    6
 -0.05031158364942543    4    4   16    7
 -0.01330911064855115    4    4   16    8
 0.02806814557217728    4    4   16    9
 0.02241362011376685    4    4   16   10
 -0.03728704489784817    4    4   16   11
 0.2495444110997964    4    4   16   16
 -0.0003581068626932861    5    1    2    1
 0.002703235550531547    5    1    3    1
 -0.0003885948151227483    5    1    4    1
 0.2509723395019572    5    1    5    1
 -0.04304020454262917    5    1    6    2
 -0.1198808844625738    5    1    6    3
 0.02761410896779808    5    1    6    4
 -0.1227827255477012    5    1    6    5
 0.02214091188964949    5    1    7    2
 0.1145726851870941    5    1    7    3
 0.1705722850449913    5    1    7    4
 0.09335632091373675    5    1    7    5
 -0.01830052897828827    5    1    8    2
 0.1235944166604686    5    1    8    3
 -0.1380472827222148    5    1    8    4
 0.04922434278969572    5    1    8    5
 -0.06137588739337567    5    1    9    2
 0.09152266686131624    5    1    9    3
 0.06532125709299696    5    1    9    4
 -0.08468176440107546    5    1    9    5
 -0.04798827964540017    5    1   10    2
 0.008756098975551152    5    1   10    3
 0.08787547179926795    5    1   10    4
 -0.09414440981402238    5    1   10    5