 &FCI NORB=  16,NELEC= 8,MS2=2,
  ORBSYM=1,1,1,1,1,1,1,1,1,1,1,1,1,1,1,1
  ISYM=1,
 &END
 0.3773735747566331    1    1    1    1
 0.3986028460187231    1    1    2    2
 -0.00662792346261851    1    1    3    2
 0.391769906077687    1    1    3    3
 0.00807458190383176    1    1    4    2
 0.002537481886127674    1    1    4    3
 0.3565362798860506    1    1    4    4
 1.110223024625157e-15    1    1    5    1
 0.008123036030972478    1    1    5    2
 -0.0105906022467168    1    1    5    3
 0.002262670316478262    1    1    5    4
 0.3590785574553146    1    1    5    5
 0.01328336088319725    1    1    6    1
 0.4056421463727299    1    1    6    6
 0.01189298861335038    1    1    7    1
 -0.001140639016635105    1    1    7    6
 0.4067671185647934    1    1    7    7
 0.001025428886620433    1    1    8    1
 0.0006857693047387545    1    1    8    6
 -2.236845223520115e-05    1    1    8    7
 0.36917704998281    1    1    8    8
 0.02365965579690439    1    1    9    1
 -1.072059108153667e-15    1    1    9    4
 -0.001078979128668436    1    1    9    6
 0.0002457554665713105    1    1    9    7
 -0.00155734508469204    1    1    9    8
 0.3719893906144822    1    1    9    9
 -0.004541681586098622    1    1   10    1
 2.26554885962571e-15    1    1   10    5
 -0.0002475424225288854    1    1   10    6
 -2.475103601568454e-05    1    1   10    7
 -0.0001232771473722535    1    1   10    8
 9.948997464817003e-05    1    1   10    9
 0.3562042622917048    1    1   10   10
 -0.001202143966102728    1    1   11    1
 1.575128916186941e-15    1    1   11    4
 6.77175054499793e-05    1    1   11    6
 -1.431551329147615e-05    1    1   11    7
 5.087891308564775e-05    1    1   11    8
 -0.0001084507122773651    1    1   11    9
 -1.449301754526079e-05    1    1   11   10
 0.3401612679109569    1    1   11   11
 -0.01299445740049941    1    1   12    2
 -0.000625844019108826    1    1   12    3
 0.008933982371702743    1    1   12    4
 0.01873604541033365    1    1   12    5
 -1.234255753157498e-15    1    1   12   10
 0.4027052506968178    1    1   12   12
 -0.001396942497326818    1    1   13    2
 -0.02005695319852953    1    1   13    3
 0.002155440706260361    1    1   13    4
 0.0007781790984888633    1    1   13    5
 0.0005122850102286351    1    1   13   12
 0.3847027884248056    1    1   13   13
 0.006058677951291884    1    1   14    2
 0.0009036357427484702    1    1   14    3
 0.01204007453048456    1    1   14    4
 -0.005694704109968148    1    1   14    5
 -1.221245327087672e-15    1    1   14   11
 -0.001741139263180137    1    1   14   12
 0.0009108949251027676    1    1   14   13
 0.3542072165410508    1    1   14   14
 -0.01816404092310509    1    1   15    2
 0.007496484314169192    1    1   15    3
 0.004279284734082133    1    1   15    4
 -0.001002687712407729    1    1   15    5
 2.027241222113396e-15    1    1   15   10
 -1.623701173514291e-15    1    1   15   11
 -9.399775623490127e-05    1    1   15   12
 0.002906288315463398    1    1   15   13
 -0.0004005870045691827    1    1   15   14
 0.3523971548995535    1    1   15   15
 -0.001660259554396779    1    1   16    1
 -0.01742258576997926    1    1   16    6
 0.001276032881210339    1    1   16    7
 -0.01133497692279359    1    1   16    8
 0.02044902645153324    1    1   16    9
 0.003641482953733916    1    1   16   10
 -0.001291901858533853    1    1   16   11
 -2.092076512028029e-15    1    1   16   15
 0.3726851895058939    1    1   16   16
 0.398602846018723    2    1    2    1
 1.690488027339399e-15    2    1    2    2
 -0.006627923462618517    2    1    3    1
 0.008074581903831778    2    1    4    1
 -2.671474153004283e-15    2    1    4    4
 0.008123036030972482    2    1    5    1
 -1.020017403874363e-15    2    1    5    2
 0.4615729907363315    2    1    6    2
 -0.1421543986732398    2    1    6    3
 0.008891656336884239    2    1    6    4
 -0.037473247683365    2    1    6    5
 -0.07360010491172475    2    1    7    2
 -0.2663489607041706    2    1    7    3
 -0.06628304815312408    2    1    7    4
 -0.05064159039374135    2    1    7    5
 1.263475001705983e-15    2    1    7    6
 1.832301671500502e-15    2    1    7    7
 -0.008500844755740927    2    1    8    2
 -0.07303162510563353    2    1    8    3
 0.06401384761930097    2    1    8    4
 -0.09216971881398354    2    1    8    5
 0.1543317780875008    2    1    9    2
 0.08373698440714444    2    1    9    3
 0.1513221703514334    2    1    9    4
 0.1756100434218316    2    1    9    5
 1.589006703994755e-15    2    1    9    8
 -0.0592017274779348    2    1   10    2
 -0.06519526716108848    2    1   10    3
 0.04662536871294556    2    1   10    4
 -0.0109327947653729    2    1   10    5
 1.654099491925354e-15    2    1   10    7
 -2.654994279982503e-15    2    1   10    9
 0.0211483216614792    2    1   11    2
 0.01089600006073794    2    1   11    3
 -0.1703711107486229    2    1   11    4
 0.05834470218517641    2    1   11    5
 2.102268012449393e-15    2    1   11    6
 -1.504005253671892e-15    2    1   11    8
 1.013078509970455e-15    2    1   11    9
 -1.540434446667405e-15    2    1   11   11
 -0.0129944574004994    2    1   12    1
 -0.3747949413369138    2    1   12    6
 -0.2422762261854335    2    1   12    7
 -0.08559714145603783    2    1   12    8
 0.1366742894295273    2    1   12    9
 0.009576192569163885    2    1   12   10
 0.009004169918636238    2    1   12   11
 -0.00139694249732682    2    1   13    1
 -0.0623562933532914    2    1   13    6
 0.2410940538463817    2    1   13    7
 0.02626098018855133    2    1   13    8
 -0.1340143993256186    2    1   13    9
 -0.07932454718479152    2    1   13   10
 0.009172823359946704    2    1   13   11
 0.006058677951291884    2    1   14    1
 0.07364420596496464    2    1   14    6
 -0.01086203724956727    2    1   14    7
 0.1026435964463017    2    1   14    8
 0.07880800194596264    2    1   14    9
 0.05635266162584841    2    1   14   10
 0.1612176935991151    2    1   14   11
 -0.01816404092310509    2    1   15    1
 1.0321604682062e-15    2    1   15    4
 -0.1486313517747996    2    1   15    6
 -0.003472410642735935    2    1   15    7
 0.05409660161509415    2    1   15    8
 -0.1888280562883147    2    1   15    9
 0.02838053100067471    2    1   15   10
 0.08515763456891413    2    1   15   11
 -2.425143419415576e-15    2    1   15   12
 1.700462687326265e-15    2    1   15   13
 -0.01958731599385689    2    1   16    2
 0.01850922078236575    2    1   16    3
 0.02454901082541926    2    1   16    4
 0.01382134486382254    2    1   16    5
 -1.609823385706477e-15    2    1   16   11
 0.3141245140544541    2    1   16   12
 -0.1753990810894996    2    1   16   13
 0.01258409910508811    2    1   16   14
 0.09401292272475643    2    1   16   15
 0.398602846018723    2    2    1    1
 1.690488027339399e-15    2    2    2    1
 0.9895892982853164    2    2    2    2
 -0.06636074059460027    2    2    3    2
 0.2701947426073192    2    2    3    3
 0.06505446745299633    2    2    4    2
 0.04795025770222166    2    2    4    3
 0.1761500164457685    2    2    4    4
 -1.009609063018502e-15    2    2    5    1
 0.04739259890181068    2    2    5    2
 0.1076663043367512    2    2    5    3
 0.03220680249944544    2    2    5    4
 0.1256199153409729    2    2    5    5
 0.4615729907363315    2    2    6    1
 3.448576060133268e-15    2    2    6    2
 -2.814643049880994e-15    2    2    6    4
 -1.119872423960278e-15    2    2    6    5
 0.9746301206951392    2    2    6    6
 -0.07360010491172474    2    2    7    1
 1.463672932855431e-15    2    2    7    2
 -1.391139807516151e-15    2    2    7    3
 0.1885023290744423    2    2    7    6
 0.4961790310046241    2    2    7    7
 -0.008500844755740913    2    2    8    1
 1.107837779845688e-15    2    2    8    3
 0.09742610061823406    2    2    8    6
 0.1145095819889311    2    2    8    7
 0.1046647258021135    2    2    8    8
 0.1543317780875008    2    2    9    1
 1.0321604682062e-15    2    2    9    2
 -1.125835535908948e-15    2    2    9    4
 0.1120134811515851    2    2    9    6
 -0.2954623372197569    2    2    9    7
 -0.0796724630234428    2    2    9    8
 0.4217586596030816    2    2    9    9
 -0.0592017274779348    2    2   10    1
 -2.033854855365558e-15    2    2   10    2
 -1.501647113946736e-15    2    2   10    3
 -1.2677576002873e-15    2    2   10    4
 -1.334219193460662e-15    2    2   10    5
 -0.03502044550002339    2    2   10    6
 -0.005840955809575915    2    2   10    7
 0.03901063483186196    2    2   10    8
 0.004962049199292586    2    2   10    9
 0.05597472808427816    2    2   10   10
 0.02114832166147919    2    2   11    1
 1.996666720849305e-15    2    2   11    2
 1.254205073131232e-15    2    2   11    4
 -0.0003567915581983197    2    2   11    6
 0.00391752925545732    2    2   11    7
 0.009588157657715313    2    2   11    8
 -0.04217017068768898    2    2   11    9
 0.000937106999000385    2    2   11   10
 0.195365916031916    2    2   11   11
 -0.3313716157388477    2    2   12    2
 0.3421272959623283    2    2   12    3
 0.08234568614614676    2    2   12    4
 0.1514728287904374    2    2   12    5
 -2.423815271754282e-15    2    2   12    6
 -2.244406917262243e-15    2    2   12    7
 1.228617901860574e-15    2    2   12    8
 -2.030249883142043e-15    2    2   12   10
 -3.576999807464176e-15    2    2   12   11
 0.7862129959240599    2    2   12   12
 -0.15336074343045    2    2   13    2
 -0.1597900493544824    2    2   13    3
 -0.1138153475140726    2    2   13    4
 -0.09018020261092902    2    2   13    5
 -1.134888624049202e-15    2    2   13    6
 2.241533781505156e-15    2    2   13   10
 -0.2756104623336824    2    2   13   12
 0.2983327184318963    2    2   13   13
 0.1167026505290222    2    2   14    2
 -0.02614849699859118    2    2   14    3
 -0.01914255192342257    2    2   14    4
 0.03230221223330642    2    2   14    5
 -0.03916917539914577    2    2   14   12
 -0.05388924525718494    2    2   14   13
 0.1450004942801114    2    2   14   14
 -0.2503106498373556    2    2   15    2
 0.00109782156178745    2    2   15    3
 -0.1044126030879327    2    2   15    4
 -0.07451661256261416    2    2   15    5
 1.544337574488353e-15    2    2   15    6
 1.751420189433084e-15    2    2   15    7
 -1.413799632921098e-15    2    2   15    9
 1.234038912723001e-15    2    2   15   10
 -1.611558109182454e-15    2    2   15   11
 0.1390203280320012    2    2   15   12
 0.04289759791454342    2    2   15   13
 -0.003388842879193487    2    2   15   14
 0.2088998186845549    2    2   15   15
 -0.0195873159938569    2    2   16    1
 -1.316655118266397e-15    2    2   16    2
 1.356553758213863e-15    2    2   16    4
 -0.3095539231272333    2    2   16    6
 -0.307970504201303    2    2   16    7
 -0.05844457649499055    2    2   16    8
 0.1270019923274077    2    2   16    9
 0.05549551165258463    2    2   16   10
 0.02390628691972774    2    2   16   11
 1.469310784152356e-15    2    2   16   12
 -1.979319486089537e-15    2    2   16   15
 0.352823972760125    2    2   16   16
 -0.006627923462618523    3    1    2    1
 0.391769906077687    3    1    3    1
 2.120699449381647e-15    3    1    3    3
 0.002537481886127667    3    1    4    1
 -2.197894644062615e-15    3    1    4    3
 -1.117161918529064e-15    3    1    4    4
 -0.01059060224671681    3    1    5    1
 -3.738329090730019e-15    3    1    5    3
 1.56472057533108e-15    3    1    5    4
 -0.1421543986732398    3    1    6    2
 -0.155114760301416    3    1    6    3
 0.007169396146271949    3    1    6    4
 0.1032965406121217    3    1    6    5
 -0.2663489607041705    3    1    7    2
 0.236875744236147    3    1    7    3
 -0.09956157910119168    3    1    7    4
 -0.2188556144912051    3    1    7    5
 -1.029260227394801e-15    3    1    7    6
 1.337580220195367e-15    3    1    7    7
 -0.0730316251056335    3    1    8    2
 -0.07457790804904042    3    1    8    3
 0.2588072720882543    3    1    8    4
 -0.08358054911417891    3    1    8    5
 1.584805420576374e-15    3    1    8    6
 -1.845095257135831e-15    3    1    8    8
 0.08373698440714442    3    1    9    2
 0.2037504021145455    3    1    9    3
 0.09070302272145196    3    1    9    4
 -0.1266286996773162    3    1    9    5
 1.155325835000554e-15    3    1    9    8
 -0.06519526716108848    3    1   10    2
 -0.1754392080330797    3    1   10    3
 0.0843288632170666    3    1   10    4
 -0.03674139093393004    3    1   10    5
 -1.336821278674627e-15    3    1   10    6
 3.384011820761756e-15    3    1   10    7
 1.135268094809572e-15    3    1   10    9
 0.01089600006073794    3    1   11    2
 -0.02622028804019504    3    1   11    3
 0.06794306794753621    3    1   11    4
 -0.06540641208526021    3    1   11    5
 -1.030425744730223e-15    3    1   11    8
 -0.0006258440191088815    3    1   12    1
 0.25386204917639    3    1   12    6
 -0.3044567065746788    3    1   12    7
 0.02201061540735723    3    1   12    8
 -0.02184594935916809    3    1   12    9
 -0.02878118724271002    3    1   12   10
 0.0130235832875859    3    1   12   11
 -0.02005695319852953    3    1   13    1
 -0.1087215169052537    3    1   13    6
 -0.183621727188966    3    1   13    7
 0.08262230294254898    3    1   13    8
 -0.2428011817788955    3    1   13    9
 -0.173226501335061    3    1   13   10
 -0.001994666755551852    3    1   13   11
 -1.719327805127513e-15    3    1   13   12
 -1.098079960293319e-15    3    1   13   13
 0.0009036357427484563    3    1   14    1
 -0.01226428151660249    3    1   14    6
 -0.02234835601214979    3    1   14    7
 0.2804762217368229    3    1   14    8
 0.04849476600598394    3    1   14    9
 0.1337595623906635    3    1   14   10
 -0.09362086475400819    3    1   14   11
 0.007496484314169192    3    1   15    1
 -0.003591222494616084    3    1   15    6
 0.1084345024270251    3    1   15    7
 0.08169643769157285    3    1   15    8
 0.05962682452679319    3    1   15    9
 0.002808186413982941    3    1   15   10
 0.007037097124746865    3    1   15   11
 1.295838436554675e-15    3    1   15   12
 2.674076238218248e-15    3    1   15   13
 0.01850922078236574    3    1   16    2
 0.0403247288534212    3    1   16    3
 -1.391588197264398e-05    3    1   16    4
 -0.01415811925012794    3    1   16    5
 -1.116511397225572e-15    3    1   16    6
 1.45326459199957e-15    3    1   16    7
 1.002670169114595e-15    3    1   16    9
 -0.1594775667263073    3    1   16   12
 -0.3148867762989145    3    1   16   13
 0.08897709493751342    3    1   16   14
 -0.07090299815837187    3    1   16   15
 -0.006627923462618537    3    2    1    1
 -0.06636074059460029    3    2    2    2
 0.2701947426073192    3    2    3    2
 -0.008874072853738722    3    2    3    3
 0.04795025770222164    3    2    4    2
 0.0190408570756717    3    2    4    3
 0.07584989772424978    3    2    4    4
 0.1076663043367512    3    2    5    2
 0.09987254742484274    3    2    5    3
 -0.0004990531550253547    3    2    5    4
 -0.03108321540424647    3    2    5    5
 -0.1421543986732398    3    2    6    1
 -0.3202511095729798    3    2    6    6
 -0.2663489607041705    3    2    7    1
 -1.342459129971552e-15    3    2    7    2
 1.448494102440634e-15    3    2    7    4
 1.082467449009528e-15    3    2    7    5
 -0.09958622785202043    3    2    7    6
 0.01679955791858079    3    2    7    7
 -0.0730316251056335    3    2    8    1
 1.101332566810775e-15    3    2    8    2
 -0.05221119683145062    3    2    8    6
 0.05987123336895897    3    2    8    7
 0.1740620252590065    3    2    8    8
 0.08373698440714444    3    2    9    1
 0.0838845823203094    3    2    9    6
 -0.2829323469152995    3    2    9    7
 0.01883518066295331    3    2    9    8
 0.1057928376318027    3    2    9    9
 -0.06519526716108848    3    2   10    1
 -1.506824179320354e-15    3    2   10    2
 0.07399926114106546    3    2   10    6
 0.03028467026670306    3    2   10    7
 0.09414765658784754    3    2   10    8
 0.03031962996947923    3    2   10    9
 0.1128857907695991    3    2   10   10
 0.01089600006073794    3    2   11    1
 -0.00207545364490969    3    2   11    6
 0.005419847742951249    3    2   11    7
 0.005134165468154407    3    2   11    8
 -0.02387822452196465    3    2   11    9
 0.0004550385384815858    3    2   11   10
 -0.0876534649132448    3    2   11   11
 0.3421272959623283    3    2   12    2
 0.1041653369919449    3    2   12    3
 0.03307940503342433    3    2   12    4
 0.002219151959046179    3    2   12    5
 1.188285581044113e-15    3    2   12   11
 -0.1792301352434811    3    2   12   12
 -0.1597900493544824    3    2   13    2
 0.1140184706977834    3    2   13    3
 -0.09300169438850354    3    2   13    4
 -0.09714183465832964    3    2   13    5
 1.868514024061518e-15    3    2   13   10
 -0.1364154054159436    3    2   13   12
 0.1779257265318271    3    2   13   13
 -0.02614849699859118    3    2   14    2
 -0.05101072344350287    3    2   14    3
 0.1410689838329921    3    2   14    4
 -0.06282868629627281    3    2   14    5
 -1.110223024625157e-15    3    2   14   11
 0.05144130137455742    3    2   14   12
 -0.0840437780782098    3    2   14   13
 0.06732646636814488    3    2   14   14
 0.00109782156178745    3    2   15    2
 -0.07423956857619277    3    2   15    3
 0.01424037181598739    3    2   15    4
 -0.004311897680957688    3    2   15    5
 -1.784108884933522e-15    3    2   15    6
 1.353734832565401e-15    3    2   15    7
 -0.1145121447448863    3    2   15   12
 0.08163766005347181    3    2   15   13
 0.03293200330322232    3    2   15   14
 -0.03555392652815532    3    2   15   15
 0.01850922078236574    3    2   16    1
 0.2457065705478221    3    2   16    6
 -0.1213421887576567    3    2   16    7
 0.02421604496304546    3    2   16    8
 0.1191855824889808    3    2   16    9
 0.06456204522718884    3    2   16   10
 0.01179580888405467    3    2   16   11
 0.004992286369854399    3    2   16   16
 0.391769906077687    3    3    1    1
 0.2701947426073192    3    3    2    2
 2.092943873766018e-15    3    3    3    1
 -0.008874072853738719    3    3    3    2
 0.7871514254862884    3    3    3    3
 -2.190955750158707e-15    3    3    4    1
 0.01904085707567172    3    3    4    2
 -0.109232494637134    3    3    4    3
 0.262169017271624    3    3    4    4
 -3.741798537681973e-15    3    3    5    1
 0.09987254742484275    3    3    5    2
 -0.1958725912580598    3    3    5    3
 -0.05646921899751346    3    3    5    4
 0.2222542135071236    3    3    5    5
 -0.155114760301416    3    3    6    1
 -2.232480693364902e-15    3    3    6    3
 1.783295733304158e-15    3    3    6    4
 2.522179513853029e-15    3    3    6    5
 0.3271591899094859    3    3    6    6
 0.236875744236147    3    3    7    1
 4.888125494650897e-15    3    3    7    3
 -2.01650762060579e-15    3    3    7    4
 -4.221232738355063e-15    3    3    7    5
 -0.190196514363087    3    3    7    6
 0.786966577428856    3    3    7    7
 -0.07457790804904041    3    3    8    1
 -1.595945597898663e-15    3    3    8    4
 1.982355252172496e-15    3    3    8    5
 0.0204412573043355    3    3    8    6
 -0.05905835197217857    3    3    8    7
 0.480462147301158    3    3    8    8
 0.2037504021145454    3    3    9    1
 2.047841063390621e-15    3    3    9    3
 -1.049507702965968e-15    3    3    9    4
 -2.35228503342455e-15    3    3    9    5
 -0.08399142441870121    3    3    9    6
 0.2418410068533399    3    3    9    7
 0.03686975311072972    3    3    9    8
 0.3458070026714448    3    3    9    9
 -0.1754392080330797    3    3   10    1
 2.541939098446577e-15    3    3   10    3
 0.1197332227953039    3    3   10    6
 0.03770211508715893    3    3   10    7
 0.1834659953812978    3    3   10    8
 0.05756729909052526    3    3   10    9
 0.2550319004408568    3    3   10   10
 -0.02622028804019504    3    3   11    1
 -1.313185671314443e-15    3    3   11    4
 0.001880965683990805    3    3   11    6
 -0.004819714198473393    3    3   11    7
 -0.004388279180255276    3    3   11    8
 0.01961891512426725    3    3   11    9
 -0.0014790098477803    3    3   11   10
 0.05474572393879666    3    3   11   11
 0.1041653369919449    3    3   12    2
 -0.2846021665281184    3    3   12    3
 0.08344323377583925    3    3   12    4
 0.232324971698793    3    3   12    5
 1.657230125698406e-15    3    3   12    6
 -2.111158470263774e-15    3    3   12   10
 0.4480782452082904    3    3   12   12
 -1.021535286915842e-15    3    3   13    1
 0.1140184706977834    3    3   13    2
 -0.1460887790975532    3    3   13    3
 -0.002598564100749394    3    3   13    4
 0.1568798592453547    3    3   13    5
 1.475273896101026e-15    3    3   13    6
 -1.371786798737284e-15    3    3   13    7
 0.2200267572255783    3    3   13   12
 0.6186708170772578    3    3   13   13
 -0.05101072344350287    3    3   14    2
 -0.09115631859512074    3    3   14    3
 0.2278798443098751    3    3   14    4
 -0.06854724309948615    3    3   14    5
 1.186550857568136e-15    3    3   14    9
 -0.02809644416926105    3    3   14   12
 -0.09599727388823662    3    3   14   13
 0.3205942289459759    3    3   14   14
 -0.07423956857619277    3    3   15    2
 0.07454559583229767    3    3   15    3
 0.04698713672740718    3    3   15    4
 -0.09885086321920239    3    3   15    5
 -1.600932927892096e-15    3    3   15    7
 -1.414666994659086e-15    3    3   15    9
 -0.05341495392491043    3    3   15   12
 -0.01150301932337816    3    3   15   13
 0.04528617548596801    3    3   15   14
 0.07088730989612224    3    3   15   15
 0.04032472885342122    3    3   16    1
 3.028393508186511e-15    3    3   16    3
 -1.863093013199091e-15    3    3   16    5
 -0.02746249474804441    3    3   16    6
 0.2541991587724607    3    3   16    7
 -0.02473074656261449    3    3   16    8
 0.2235458337289652    3    3   16    9
 0.1738607894319967    3    3   16   10
 -0.02840984974120703    3    3   16   11
 -2.406061461179831e-15    3    3   16   15
 0.358057552231717    3    3   16   16
 0.008074581903831767    4    1    2    1
 0.002537481886127674    4    1    3    1
 -2.1840168562548e-15    4    1    3    3
 0.3565362798860506    4    1    4    1
 -2.645453300864631e-15    4    1    4    2
 -1.118896642005041e-15    4    1    4    3
 2.17881268582687e-15    4    1    4    4
 0.002262670316478251    4    1    5    1
 1.561251128379126e-15    4    1    5    3
 2.529226827974185e-15    4    1    5    4
 4.107825191113079e-15    4    1    5    5
 0.008891656336884234    4    1    6    2
 0.007169396146271942    4    1    6    3
 -0.1446577824873835    4    1    6    4
 0.01733748307765161    4    1    6    5
 -3.076898002878081e-15    4    1    6    6
 -0.06628304815312408    4    1    7    2
 -0.09956157910119168    4    1    7    3
 -0.1091997856742685    4    1    7    4
 0.003476205459796709    4    1    7    5
 -2.149322386735264e-15    4    1    7    7
 0.06401384761930097    4    1    8    2
 0.2588072720882543    4    1    8    3
 0.1274974962004994    4    1    8    4
 -0.1188559495739356    4    1    8    5
 2.31753635379639e-15    4    1    8    6
 -1.475165475883777e-15    4    1    8    8
 -1.044303532538038e-15    4    1    9    1
 0.1513221703514334    4    1    9    2
 0.09070302272145195    4    1    9    3
 -0.172129525354305    4    1    9    4
 0.08043915444606001    4    1    9    5
 -1.271552307891e-15    4    1    9    7
 -1.73298875250083e-15    4    1    9    8
 0.04662536871294554    4    1   10    2
 0.0843288632170666    4    1   10    3
 -0.05937597277705804    4    1   10    4
 0.2115152825027725    4    1   10    5
 -1.253215738648839e-15    4    1   10    6
 3.068183727916729e-15    4    1   10   10
 1.547373340571312e-15    4    1   11    1
 -0.1703711107486229    4    1   11    2
 0.06794306794753621    4    1   11    3
 0.1866012198361178    4    1   11    4
 0.1801917900009205    4    1   11    5
 1.68962066560141e-15    4    1   11    6
 1.97758476261356e-15    4    1   11    8
 -2.338407245616736e-15    4    1   11    9
 -3.008227347778281e-15    4    1   11   10
 3.691491556878645e-15    4    1   11   11
 0.008933982371702731    4    1   12    1
 -2.079066085958203e-15    4    1   12    4
 -1.410330185969144e-15    4    1   12    5
 0.02387929069914624    4    1   12    6
 -0.01828639026166876    4    1   12    7
 0.03355684806906262    4    1   12    8
 0.1206066669028987    4    1   12    9
 -0.06461303236296401    4    1   12   10
 -0.1182805116553389    4    1   12   11
 -2.202231452752557e-15    4    1   12   12
 0.002155440706260375    4    1   13    1
 -1.614160194396419e-15    4    1   13    4
 -0.08794708191882404    4    1   13    6
 0.08050200950145796    4    1   13    7
 0.3552959543275732    4    1   13    8
 0.0333027941109517    4    1   13    9
 0.0499191021872198    4    1   13   10
 0.03809577864563943    4    1   13   11
 0.01204007453048456    4    1   14    1
 -2.001870891277235e-15    4    1   14    4
 -1.956768080901838e-15    4    1   14    5
 -0.1298953491158037    4    1   14    6
 -0.03271845774802574    4    1   14    7
 0.02381977461389811    4    1   14    8
 0.1956925576411196    4    1   14    9
 -0.223863817564824    4    1   14   10
 -0.02206673412709252    4    1   14   11
 0.004279284734082154    4    1   15    1
 1.023486850826316e-15    4    1   15    2
 -1.120631365481017e-15    4    1   15    4
 1.259409243559162e-15    4    1   15    5
 -0.09493838075480408    4    1   15    6
 0.006618196865076234    4    1   15    7
 -0.002381848568473414    4    1   15    8
 0.0919884185176737    4    1   15    9
 0.1105699962654639    4    1   15   10
 -0.3321324856880044    4    1   15   11
 -1.309716224362489e-15    4    1   15   12
 2.46677678283902e-15    4    1   15   14
 0.02454901082541924    4    1   16    2
 -1.391588197264398e-05    4    1   16    3
 -0.007189971190235143    4    1   16    4
 -0.0148043905175381    4    1   16    5
 2.458970527197124e-15    4    1   16    8
 -1.162264728904461e-15    4    1   16    9
 -1.381707248615527e-15    4    1   16   10
 2.151057110211241e-15    4    1   16   11
 0.05785908777284669    4    1   16   12
 -0.04995089025607203    4    1   16   13
 -0.2732699209841786    4    1   16   14
 -0.2414371263273413    4    1   16   15
 -2.210037708394452e-15    4    1   16   16
 0.008074581903831771    4    2    1    1
 0.06505446745299634    4    2    2    2
 0.04795025770222166    4    2    3    2
 0.01904085707567171    4    2    3    3
 -2.650657471292561e-15    4    2    4    1
 0.1761500164457685    4    2    4    2
 0.0758498977242498    4    2    4    3
 -0.1343745406292912    4    2    4    4
 0.03220680249944544    4    2    5    2
 -0.0004990531550253564    4    2    5    3
 -0.05190363335170346    4    2    5    4
 0.08966125761610164    4    2    5    5
 0.008891656336884235    4    2    6    1
 -2.813558847708508e-15    4    2    6    2
 0.006162340790183539    4    2    6    6
 -0.06628304815312407    4    2    7    1
 1.440037325495247e-15    4    2    7    3
 -0.04728570155531175    4    2    7    6
 0.1560339841687209    4    2    7    7
 0.06401384761930098    4    2    8    1
 -1.910364227919459e-15    4    2    8    4
 -0.0921875829840272    4    2    8    6
 0.001231862052808422    4    2    8    7
 0.01884975320071133    4    2    8    8
 0.1513221703514334    4    2    9    1
 -1.120631365481017e-15    4    2    9    2
 1.19522447494802e-15    4    2    9    4
 0.01370042524502058    4    2    9    6
 -0.1315860219652522    4    2    9    7
 -0.02614286787247012    4    2    9    8
 0.06305823659918705    4    2    9    9
 0.04662536871294556    4    2   10    1
 -1.263908682574977e-15    4    2   10    2
 1.445133075705929e-15    4    2   10    4
 -0.03028428886151858    4    2   10    6
 -0.008476776971264801    4    2   10    7
 -0.1102570573523932    4    2   10    8
 -0.03177301409637191    4    2   10    9
 -0.07581219792092329    4    2   10   10
 -0.1703711107486229    4    2   11    1
 1.240327285323417e-15    4    2   11    2
 -3.549244231848547e-15    4    2   11    4
 -0.01073519083318325    4    2   11    6
 0.0353395624826448    4    2   11    7
 -0.05106293976810591    4    2   11    8
 0.2331278119095292    4    2   11    9
 -0.007196357813861587    4    2   11   10
 -0.1679062805742789    4    2   11   11
 0.08234568614614676    4    2   12    2
 0.03307940503342433    4    2   12    3
 0.1118787014881987    4    2   12    4
 0.0303332473572879    4    2   12    5
 2.750349861052603e-15    4    2   12    6
 1.023703691260813e-15    4    2   12    7
 1.025655255171287e-15    4    2   12    8
 -1.412444380205491e-15    4    2   12   10
 0.06201828504478506    4    2   12   12
 -0.1138153475140726    4    2   13    2
 -0.09300169438850354    4    2   13    3
 0.04599762929953013    4    2   13    4
 -0.06936395835612447    4    2   13    5
 -0.06900890326630853    4    2   13   12
 0.08467650128992939    4    2   13   13
 -0.01914255192342258    4    2   14    2
 0.1410689838329921    4    2   14    3
 0.054437618938792    4    2   14    4
 0.1051043412983316    4    2   14    5
 -1.665442957154983e-15    4    2   14   10
 -0.0242453131030965    4    2   14   12
 0.1121829086091326    4    2   14   13
 -0.03149156930207501    4    2   14   14
 1.0321604682062e-15    4    2   15    1
 -0.1044126030879327    4    2   15    2
 0.01424037181598738    4    2   15    3
 0.2025721620960305    4    2   15    4
 -0.008926891806684288    4    2   15    5
 2.202231452752557e-15    4    2   15    8
 1.897787482718627e-15    4    2   15   11
 -0.08535045739786709    4    2   15   12
 0.06755294480646398    4    2   15   13
 -0.1482968647110709    4    2   15   14
 -0.154585258548118    4    2   15   15
 0.02454901082541925    4    2   16    1