 &FCI NORB=  14,NELEC= 8,MS2=0,
  ORBSYM=1,1,1,1,1,1,1,1,1,1,1,1,1,1
  ISYM=1,
 &END
 0.2000554497862516    1    1    1    1
 0.005066814619614914    1    1    2    1
 0.2017789245401723    1    1    2    2
 -0.003720353032030218    1    1    3    1
 0.0002345638899870928    1    1    3    2
 0.1984458930490825    1    1    3    3
 -0.002140311782729953    1    1    4    1
 -0.004141998410547208    1    1    4    2
 -0.00357555974206346    1    1    4    3
 0.2094030485144585    1    1    4    4
 0.0004225925695798896    1    1    5    1
 0.003073067213270272    1    1    5    2
 -0.001522352350310744    1    1    5    3
 7.312350232531115e-05    1    1    5    4
 0.1889119293076632    1    1    5    5
 0.0002089498250878799    1    1    6    1
 0.00300936297310125    1    1    6    2
 -0.008368459937029985    1    1    6    3
 0.002134724834009828    1    1    6    4
 -0.003797105066119818    1    1    6    5
 0.199644105905548    1    1    6    6
 0.001701138019485191    1    1    7    1
 0.01122424894650862    1    1    7    2
 0.003360379748155547    1    1    7    3
 -0.003374170405718323    1    1    7    4
 -0.002678063393475724    1    1    7    5
 -0.0001541941492583538    1    1    7    6
 0.1969920079002873    1    1    7    7
 -0.01417828116947687    1    1    8    1
 -0.001036652215275435    1    1    8    2
 -0.0007239191105401733    1    1    8    3
 0.0001727428909829368    1    1    8    4
 0.001448124896636181    1    1    8    5
 -0.004162151205854413    1    1    8    6
 -0.001189275701034165    1    1    8    7
 0.1991243625053562    1    1    8    8
 -0.003584731164562191    1    1    9    1
 -0.0004150730599826874    1    1    9    2
 0.0008752347001630481    1    1    9    3
 -7.431618209136764e-05    1    1    9    4
 -0.002548013752700876    1    1    9    5
 0.001676842437991294    1    1    9    6
 -0.004075066507158373    1    1    9    7
 -0.0001503743324272749    1    1    9    8
 0.1992086111578379    1    1    9    9
 -3.647120499870177e-05    1    1   10    1
 -0.0002027031347624532    1    1   10    2
 -0.01109378193809101    1    1   10    3
 3.177205308190975e-05    1    1   10    4
 0.001406357328037931    1    1   10    5
 -0.001735058802778952    1    1   10    6
 0.000437893557630388    1    1   10    7
 -0.001736564771330294    1    1   10    8
 -0.004321513392937026    1    1   10    9
 0.2086358376359104    1    1   10   10
 0.0001925240095829624    1    1   11    1
 0.009504039651648144    1    1   11    2
 4.379286495779415e-05    1    1   11    3
 -0.0009465599789864314    1    1   11    4
 1.645425009096264e-05    1    1   11    5
 0.0004991981082269302    1    1   11    6
 0.001339027128537615    1    1   11    7
 -0.003750491941674731    1    1   11    8
 0.001657485410653267    1    1   11    9
 8.754394325120873e-05    1    1   11   10
 0.1880636848659262    1    1   11   11
 -0.0003173005110525227    1    1   12    1
 -0.0001103529560513503    1    1   12    2
 7.414285057356484e-05    1    1   12    3
 -0.0006537940768830929    1    1   12    4
 0.009804115258874955    1    1   12    5
 -0.001216387481464621    1    1   12    6
 0.000355169213095273    1    1   12    7
 0.005272761656774958    1    1   12    8
 -0.01027929197404033    1    1   12    9
 0.003436808899861286    1    1   12   10
 0.003791749110810216    1    1   12   11
 0.1987695668419604    1    1   12   12
 -0.0004508338548098352    1    1   13    1
 0.0002791792656184795    1    1   13    2
 -6.515713105189561e-05    1    1   13    3
 -0.01066823401389371    1    1   13    4
 -0.0008199363168215528    1    1   13    5
 0.0003738680726120235    1    1   13    6
 0.001131792139739393    1    1   13    7
 0.007078192038800061    1    1   13    8
 0.005361758415669742    1    1   13    9
 -0.00345497945425894    1    1   13   10
 0.001309783237111842    1    1   13   11
 1.202762623284462e-05    1    1   13   12
 0.1960451619007267    1    1   13   13
 -2.80904998514412e-05    1    1   14    1
 -0.0004302017543783634    1    1   14    2
 0.001138209658787165    1    1   14    3
 0.0003013753893055839    1    1   14    4
 9.623967700368025e-06    1    1   14    5
 -0.01438753798069094    1    1   14    6
 0.001312621173446892    1    1   14    7
 0.0003744517683199958    1    1   14    8
 -0.001620498347654322    1    1   14    9
 0.002084138214832568    1    1   14   10
 0.0004997411168801789    1    1   14   11
 0.004888080424169525    1    1   14   12
 0.003575735751199429    1    1   14   13
 0.1974808160888188    1    1   14   14
 0.005066814619614914    2    1    1    1
 0.2017789245401722    2    1    2    1
 0.001914966338101114    2    1    2    2
 0.0002345638899870911    2    1    3    1
 0.001417963430698953    2    1    3    2
 -0.004255089082083824    2    1    3    3
 -0.004141998410547205    2    1    4    1
 -0.1544138227481305    2    1    4    2
 -0.03363453787403635    2    1    4    3
 -0.002620991398635149    2    1    4    4
 0.003073067213270286    2    1    5    1
 0.02645433625165172    2    1    5    2
 -0.1213687630536107    2    1    5    3
 0.001514658370305927    2    1    5    4
 0.001316833643657959    2    1    5    5
 0.003009362973101243    2    1    6    1
 -0.001563163306492643    2    1    6    2
 0.001765233770704    2    1    6    3
 -0.01422049893255126    2    1    6    4
 -0.141303962564111    2    1    6    5
 -4.85978047133559e-05    2    1    6    6
 0.01122424894650864    2    1    7    1
 0.004235189934829624    2    1    7    2
 0.001542122870861631    2    1    7    3
 -0.1386805375975237    2    1    7    4
 0.01402506681083016    2    1    7    5
 -0.0005529899983910333    2    1    7    6
 -7.803659034483559e-05    2    1    7    7
 -0.001036652215275425    2    1    8    1
 -0.0183216779013959    2    1    8    2
 -0.0007160670741088518    2    1    8    3
 0.002194291305385267    2    1    8    4
 0.00289549397872354    2    1    8    5
 -0.07546801671292645    2    1    8    6
 -0.1184144915014732    2    1    8    7
 0.0002315743969506789    2    1    8    8
 -0.000415073059982677    2    1    9    1
 -0.004873053681283383    2    1    9    2
 0.001237205445371786    2    1    9    3
 0.001877744976340853    2    1    9    4
 -0.002287254837813224    2    1    9    5
 0.1203341044506877    2    1    9    6
 -0.07449989103964172    2    1    9    7
 -0.0004353073393504291    2    1    9    8
 -1.53386313791002e-05    2    1    9    9
 -0.0002027031347624428    2    1   10    1
 -4.547474597830364e-05    2    1   10    2
 -0.0004234025497320947    2    1   10    3
 0.002509225468340329    2    1   10    4
 0.01145449935869646    2    1   10    5
 -0.003047572380587386    2    1   10    6
 0.002172204982242746    2    1   10    7
 0.03897955424202053    2    1   10    8
 -0.14916979177362    2    1   10    9
 0.002495016553088723    2    1   10   10
 0.009504039651648154    2    1   11    1
 0.0005332084743088633    2    1   11    2
 0.0002603419433879935    2    1   11    3
 -0.009923065645723924    2    1   11    4
 0.001644100687179211    2    1   11    5
 0.001662721322859601    2    1   11    6
 0.002324747379256335    2    1   11    7
 -0.1238239625720467    2    1   11    8
 -0.0324480561873406    2    1   11    9
 0.001725196829378316    2    1   11   10
 -0.002415428862631795    2    1   11   11
 -0.0001103529560513572    2    1   12    1
 0.001265614429478451    2    1   12    2
 -0.005458584200470766    2    1   12    3
 8.311637979426661e-05    2    1   12    4
 0.0005417040491184459    2    1   12    5
 -0.01474860868393559    2    1   12    6
 0.002186342604008438    2    1   12    7
 -0.0006320556713360764    2    1   12    8
 -0.00299502876673376    2    1   12    9
 0.1390498711294844    2    1   12   10
 0.04006495120062337    2    1   12   11
 0.004004141077040096    2    1   12   12
 0.0002791792656184726    2    1   13    1
 0.006449432328843641    2    1   13    2
 0.002038393276646727    2    1   13    3
 -0.0004172624339147789    2    1   13    4
 -0.0001499454873683092    2    1   13    5
 0.002357278455697578    2    1   13    6
 0.007708698480643568    2    1   13    7
 -0.003357341994452912    2    1   13    8
 0.0009866188228844081    2    1   13    9
 -0.04146285997677659    2    1   13   10
 0.1296741628090414    2    1   13   11
 0.003269954392097443    2    1   13   12
 -0.002154934076623063    2    1   13   13
 -0.000430201754378353    2    1   14    1
 -0.0002212601297390225    2    1   14    2
 -6.121802841919932e-05    2    1   14    3
 0.0002303158957278166    2    1   14    4
 0.007793200293518638    2    1   14    5
 -0.0004225709981167808    2    1   14    6
 -6.009693656581355e-06    2    1   14    7
 0.00837976294359012    2    1   14    8
 -0.01716651307394621    2    1   14    9
 0.004105019323284123    2    1   14   10
 0.001671023613799061    2    1   14   11
 0.196349401151261    2    1   14   12
 -0.01599708020053992    2    1   14   13
 -0.003440930182043458    2    1   14   14
 0.2017789245401723    2    2    1    1
 0.001914966338101134    2    2    2    1
 0.3181890311107407    2    2    2    2
 0.001417963430698952    2    2    3    1
 0.007758633635931857    2    2    3    2
 0.08357808016038795    2    2    3    3
 -0.1544138227481305    2    2    4    1
 0.00201077732711482    2    2    4    2
 -0.00110499630703546    2    2    4    3
 0.2105472921062206    2    2    4    4
 0.02645433625165172    2    2    5    1
 -0.0007178178029932855    2    2    5    2
 0.003223408371281571    2    2    5    3
 0.0004152419965189405    2    2    5    4
 0.1871114659970828    2    2    5    5
 -0.001563163306492633    2    2    6    1
 -0.00520596007817755    2    2    6    2
 0.09275539087793362    2    2    6    3
 8.448773625446132e-05    2    2    6    4
 0.0005839678421243055    2    2    6    5
 0.2049357271503138    2    2    6    6
 0.004235189934829634    2    2    7    1
 0.1168268873818474    2    2    7    2
 0.0132881186336761    2    2    7    3
 0.002530609732205105    2    2    7    4
 -0.0009781364867472338    2    2    7    5
 -0.001062170911817824    2    2    7    6
 0.1914795521248886    2    2    7    7
 -0.0183216779013959    2    2    8    1
 -0.002185024619664883    2    2    8    2
 -0.001710715923796098    2    2    8    3
 0.09815600375409569    2    2    8    4
 0.04492428804376765    2    2    8    5
 0.0002958214918893712    2    2    8    6
 0.001437051670126348    2    2    8    7
 0.1874232546197975    2    2    8    8
 -0.004873053681283383    2    2    9    1
 -0.001834978964193608    2    2    9    2
 0.00088750186863399    2    2    9    3
 0.04425821230844784    2    2    9    4
 -0.09781261184056464    2    2    9    5
 -0.0009493030260339652    2    2    9    6
 0.0004207734996414317    2    2    9    7
 -0.00716422133297066    2    2    9    8
 0.2114565749533601    2    2    9    9
 -4.547474597828977e-05    2    2   10    1
 -0.0005319955001793081    2    2   10    2
 -0.006911296084413642    2    2   10    3
 -0.0005020285923226231    2    2   10    4
 0.002407710880346699    2    2   10    5
 -0.1115706533760269    2    2   10    6
 0.0306004620227779    2    2   10    7
 -0.0004886798665603292    2    2   10    8
 -0.0001541663876562654    2    2   10    9
 0.2128620471315721    2    2   10   10
 0.0005332084743088633    2    2   11    1
 0.01931643917224911    2    2   11    2
 0.0004645858879509159    2    2   11    3
 -0.001511948865383032    2    2   11    4
 -0.0009590734018212199    2    2   11    5
 0.026858725747983    2    2   11    6
 0.09732141391626507    2    2   11    7
 0.002110229736304585    2    2   11    8
 -4.733374238629663e-05    2    2   11    9
 0.0006378002293311105    2    2   11   10
 0.1844049545450659    2    2   11   11
 0.001265614429478444    2    2   12    1
 -0.0002724398587924531    2    2   12    2
 -6.623338941499218e-05    2    2   12    3
 -0.0004447882156753472    2    2   12    4
 0.01476132282829302    2    2   12    5
 -0.001493424105429686    2    2   12    6
 0.0009834423739788628    2    2   12    7
 0.007427117643687038    2    2   12    8
 -0.1215790774090783    2    2   12    9
 0.002549915865085788    2    2   12   10
 0.001860792207651219    2    2   12   11
 0.2935714739029704    2    2   12   12
 0.006449432328843645    2    2   13    1
 0.0004229372814025072    2    2   13    2
 0.0001312225080768023    2    2   13    3
 -0.01186402395961994    2    2   13    4
 -0.001589010638632463    2    2   13    5
 0.001359058591931285    2    2   13    6
 0.001803471638621899    2    2   13    7
 -0.09811842662400841    2    2   13    8
 0.006307784394142544    2    2   13    9
 0.002786186069891016    2    2   13   10
 -0.003262051561852429    2    2   13   11
 -0.0158217389988702    2    2   13   12
 0.09929789554662165    2    2   13   13
 -0.0002212601297390121    2    2   14    1
 0.0002492167743675319    2    2   14    2
 -0.00428143638913489    2    2   14    3
 0.0003631213880085638    2    2   14    4
 0.0001211326139739059    2    2   14    5
 -0.01865287341799539    2    2   14    6
 0.001628002778640284    2    2   14    7
 0.0006535379077973191    2    2   14    8
 -0.001987375731712013    2    2   14    9
 0.1460353264651443    2    2   14   10
 0.02779902051540306    2    2   14   11
 -0.004327281072863204    2    2   14   12
 0.002608130579720161    2    2   14   13
 0.1959231261108046    2    2   14   14
 -0.003720353032030216    3    1    1    1
 0.0002345638899870946    3    1    2    1
 0.00141796343069896    3    1    2    2
 0.1984458930490825    3    1    3    1
 -0.004255089082083828    3    1    3    2
 0.001528039377830566    3    1    3    3
 -0.003575559742063446    3    1    4    1
 -0.03363453787403635    3    1    4    2
 0.1536178865818762    3    1    4    3
 0.0005035886086094139    3    1    4    4
 -0.001522352350310746    3    1    5    1
 -0.1213687630536107    3    1    5    2
 -0.02647821409335465    3    1    5    3
 -0.0008743897036031182    3    1    5    4
 -0.0005323822525360416    3    1    5    5
 -0.008368459937029995    3    1    6    1
 0.001765233770703997    3    1    6    2
 0.001471181841279145    3    1    6    3
 -0.140361677337882    3    1    6    4
 0.01400042765672216    3    1    6    5
 -0.0002477385299208277    3    1    6    6
 0.003360379748155545    3    1    7    1
 0.001542122870861642    3    1    7    2
 0.0008671385317179131    3    1    7    3
 0.01393661315948881    3    1    7    4
 0.1376668646409223    3    1    7    5
 0.0006204849626440315    3    1    7    6
 0.000406599948046163    3    1    7    7
 -0.000723919110540169    3    1    8    1
 -0.0007160670741088466    3    1    8    2
 -0.01850146601375692    3    1    8    3
 0.001010414879629207    3    1    8    4
 0.0006262967661960651    3    1    8    5
 0.119134784736292    3    1    8    6
 -0.07426668302294526    3    1    8    7
 0.0003834429259379664    3    1    8    8
 0.0008752347001630412    3    1    9    1
 0.001237205445371788    3    1    9    2
 -0.004371566168120554    3    1    9    3
 0.0003622623974238893    3    1    9    4
 -0.001961800826121053    3    1    9    5
 0.0746497871010967    3    1    9    6
 0.117571250262239    3    1    9    7
 0.0003789319547260776    3    1    9    8
 -0.0002711713333274504    3    1    9    9
 -0.01109378193809101    3    1   10    1
 -0.0004234025497320965    3    1   10    2
 -0.0006288179038141293    3    1   10    3
 -0.01037359997319521    3    1   10    4
 0.002710437342642569    3    1   10    5
 -0.001662027505255088    3    1   10    6
 0.0005036899003155191    3    1   10    7
 0.1476896209583904    3    1   10    8
 0.03849797755417977    3    1   10    9
 0.0003753474083158011    3    1   10   10
 4.379286495778982e-05    3    1   11    1
 0.0002603419433879952    3    1   11    2
 -0.0006977252769952225    3    1   11    3
 -0.002176185798890244    3    1   11    4
 -0.007974942808326103    3    1   11    5
 7.496387966317167e-05    3    1   11    6
 0.001355576355302759    3    1   11    7
 0.03200414765619362    3    1   11    8
 -0.1227123932014109    3    1   11    9
 -0.00205455355484812    3    1   11   10
 -0.001432380859737629    3    1   11   11
 7.414285057356744e-05    3    1   12    1
 -0.005458584200470771    3    1   12    2
 -0.002041392513017073    3    1   12    3
 0.0006102107655430646    3    1   12    4
 0.0004084431273980527    3    1   12    5
 0.001258607948296393    3    1   12    6
 0.006330618620263163    3    1   12    7
 9.336408121241729e-05    3    1   12    8
 -0.001574920024430484    3    1   12    9
 0.04167907076516149    3    1   12   10
 -0.130664902567038    3    1   12   11
 0.001754603170890118    3    1   12   12
 -6.515713105188694e-05    3    1   13    1
 0.002038393276646723    3    1   13    2
 -0.007772114703475707    3    1   13    3
 -0.0004664676953250665    3    1   13    4
 0.0005983531238992821    3    1   13    5
 0.0137666094966547    3    1   13    6
 -0.001579623498706909    3    1   13    7
 -0.001352260921990121    3    1   13    8
 0.000139516747241226    3    1   13    9
 0.1352233387955291    3    1   13   10
 0.03892400432473136    3    1   13   11
 -0.004383730625202088    3    1   13   12
 -0.005193259679692919    3    1   13   13
 0.001138209658787154    3    1   14    1
 -6.121802841920626e-05    3    1   14    2
 0.0002690218142810626    3    1   14    3
 0.008770864787385126    3    1   14    4
 4.622702878870604e-05    3    1   14    5
 -0.0007858496501085234    3    1   14    6
 -0.000743549305254272    3    1   14    7
 -0.01552885078696379    3    1   14    8
 -0.00826645712709136    3    1   14    9
 0.0004813909758922862    3    1   14   10
 0.001534793753228176    3    1   14   11
 -0.01582184287203826    3    1   14   12
 -0.1963869090210399    3    1   14   13
 0.005027700816915438    3    1   14   14
 0.000234563889987098    3    2    1    1
 0.001417963430698952    3    2    2    1
 0.00775863363593186    3    2    2    2
 -0.004255089082083829    3    2    3    1
 0.08357808016038792    3    2    3    2
 -0.007778311941654143    3    2    3    3
 -0.03363453787403635    3    2    4    1
 -0.00110499630703546    3    2    4    2
 -0.004116555741749809    3    2    4    3
 -7.328487249820374e-05    3    2    4    4
 -0.1213687630536107    3    2    5    1
 0.003223408371281575    3    2    5    2
 -0.001005143949281618    3    2    5    3
 0.0008653731302415745    3    2    5    4
 -1.846891519465725e-05    3    2    5    5
 0.001765233770703993    3    2    6    1
 0.09275539087793362    3    2    6    2
 0.01351375639566734    3    2    6    3
 0.003583676425380208    3    2    6    4
 -0.002031514159680251    3    2    6    5
 -0.001075593786202587    3    2    6    6
 0.00154212287086163    3    2    7    1
 0.0132881186336761    3    2    7    2
 -0.09105345902354221    3    2    7    3
 -0.00162642733334082    3    2    7    4
 -0.002572712880988023    3    2    7    5
 -0.004843905757531136    3    2    7    6
 0.001073827731302821    3    2    7    7
 -0.0007160670741088448    3    2    8    1
 -0.001710715923796107    3    2    8    2
 -6.087489441966229e-07    3    2    8    3
 0.04470106729686094    3    2    8    4
 -0.0791158775489382    3    2    8    5
 -0.003518773688186209    3    2    8    6
 -9.851922691785954e-05    3    2    8    7
 0.005843835635508603    3    2    8    8
 0.001237205445371793    3    2    9    1
 0.0008875018686339883    3    2    9    2
 0.0006799209957084962    3    2    9    3
 -0.0813490735770975    3    2    9    4
 -0.04316358696472242    3    2    9    5
 -0.0008386019213227893    3    2    9    6
 -0.003512847218149916    3    2    9    7
 -0.01103229830981962    3    2    9    8
 -0.005815708928641391    3    2    9    9
 -0.0004234025497320913    3    2   10    1
 -0.006911296084413647    3    2   10    2
 4.00502569598395e-05    3    2   10    3
 0.0007728229292492863    3    2   10    4
 0.001253091017623249    3    2   10    5
 -0.03313676597840555    3    2   10    6
 -0.09059947992415976    3    2   10    7
 -0.001863881842707783    3    2   10    8
 -0.002672797799940081    3    2   10    9
 0.0004510732448021401    3    2   10   10
 0.0002603419433879926    3    2   11    1
 0.0004645858879509151    3    2   11    2
 0.005231775494560452    3    2   11    3
 -0.0004065664827802894    3    2   11    4
 0.0007499713161230547    3    2   11    5
 -0.07912483403271607    3    2   11    6
 0.0289227597851171    3    2   11    7
 -0.001588576979904564    3    2   11    8
 0.003714981848716485    3    2   11    9
 -0.0007422412829157163    3    2   11   10
 -0.0006011762919347803    3    2   11   11
 -0.005458584200470773    3    2   12    1
 -6.623338941499565e-05    3    2   12    2
 -0.0003551728699145232    3    2   12    3
 0.001629835165664052    3    2   12    4
 0.0004367765591383769    3    2   12    5
 -0.0008935586181838383    3    2   12    6
 -0.00023898017405986    3    2   12    7
 0.08858546787862931    3    2   12    8
 -0.008281433173175042    3    2   12    9
 0.001524573016164396    3    2   12   10
 0.002369333463115694    3    2   12   11
 -0.01579937371841544    3    2   12   12
 0.002038393276646725    3    2   13    1
 0.0001312225080768083    3    2   13    2
 1.058631030866498e-05    3    2   13    3
 -6.399472557210885e-05    3    2   13    4
 -0.0007282062963522729    3    2   13    5
 -0.0007664227252251275    3    2   13    6
 0.000966146854992956    3    2   13    7
 -0.00834306026652965    3    2   13    8
 -0.08725111092253832    3    2   13    9
 -0.004403411037671547    3    2   13   10
 -0.002107822806748571    3    2   13   11
 -0.09677656066219807    3    2   13   12
 0.01582172740185019    3    2   13   13
 -6.121802841920973e-05    3    2   14    1
 -0.004281436389134898    3    2   14    2
 -0.001302866742714846    3    2   14    3
 2.276563178379813e-05    3    2   14    4
 0.0002805266493965891    3    2   14    5
 -0.0002541081749533481    3    2   14    6
 -0.0004367205664643874    3    2   14    7
 0.001135012468227465    3    2   14    8
 -1.034648579810102e-05    3    2   14    9
 0.03170424544878755    3    2   14   10
 -0.127406497698256    3    2   14   11
 0.004117940392323599    3    2   14   12
 0.003947591789247949    3    2   14   13
 -2.174308484085771e-05    3    2   14   14
 0.1984458930490825    3    3    1    1
 -0.004255089082083827    3    3    2    1
 0.08357808016038794    3    3    2    2
 0.001528039377830594    3    3    3    1
 -0.007778311941654147    3    3    3    2
 0.3171159469160359    3    3    3    3
 0.1536178865818762    3    3    4    1
 -0.004116555741749814    3    3    4    2
 0.004279193392310077    3    3    4    3
 0.2149226023903552    3    3    4    4
 -0.02647821409335465    3    3    5    1
 -0.001005143949281622    3    3    5    2
 0.001409964310116025    3    3    5    3
 -0.0004108264810478493    3    3    5    4
 0.1846339250646712    3    3    5    5
 0.001471181841279152    3    3    6    1
 0.01351375639566734    3    3    6    2
 -0.1177443716676981    3    3    6    3
 -0.002309268115290546    3    3    6    4
 0.001413193605605853    3    3    6    5
 0.1946380270791974    3    3    6    6
 0.0008671385317179335    3    3    7    1
 -0.09105345902354221    3    3    7    2
 -0.00485924872858133    3    3    7    3
 0.0001957114905086544    3    3    7    4
 0.001793471433312738    3    3    7    5
 0.0007507725062154517    3    3    7    6
 0.2017132796035028    3    3    7    7
 -0.01850146601375693    3    3    8    1
 -6.087489442000923e-07    3    3    8    2
 -0.001667157036156919    3    3    8    3
 -0.1008005478837938    3    3    8    4
 -0.04271705606377087    3    3    8    5
 0.002285128225201299    3    3    8    6
 -9.477684738690151e-06    3    3    8    7
 0.2113258639115015    3    3    8    8
 -0.004371566168120562    3    3    9    1
 0.0006799209957085066    3    3    9    2
 0.001860017751232181    3    3    9    3
 -0.04585915101432138    3    3    9    4
 0.09421637914119987    3    3    9    5
 0.0009564869939174313    3    3    9    6
 0.002238244980355725    3    3    9    7
 0.007045835807577642    3    3    9    8
 0.1869399084207908    3    3    9    9
 -0.0006288179038141184    3    3   10    1
 4.00502569598395e-05    3    3   10    2
 -0.02207900783116075    3    3   10    3
 -0.0003023911244286991    3    3   10    4
 0.001549421836136605    3    3   10    5
 0.1105089758671574    3    3   10    6
 -0.03043968588537241    3    3   10    7
 0.002353293762848114    3    3   10    8
 0.002801316369004818    3    3   10    9
 0.2101394442569458    3    3   10   10
 -0.0006977252769952351    3    3   11    1
 0.005231775494560453    3    3   11    2
 -0.0004633441591552414    3    3   11    3
 -0.001261015892769746    3    3   11    4
 0.000367015896783301    3    3   11    5
 -0.02655061263637871    3    3   11    6
 -0.09696565949883609    3    3   11    7
 -0.0002685337542105144    3    3   11    8
 -0.001038559706861831    3    3   11    9
 -0.0006826419631787884    3    3   11   10
 0.1854311956861513    3    3   11   11
 -0.002041392513017078    3    3   12    1
 -0.0003551728699145249    3    3   12    2
 0.0005770383077852647    3    3   12    3
 -0.001264491046674854    3    3   12    4
 0.01072808075693186    3    3   12    5
 -0.00140149871607499    3    3   12    6
 0.0006488917417455898    3    3   12    7
 0.006298372141308616    3    3   12    8
 0.09832547285733506    3    3   12    9
 -0.0007686744629082469    3    3   12   10
 -0.003524811314008556    3    3   12   11
 0.1008308483605814    3    3   12   12
 -0.0077721147034757    3    3   13    1
 1.05863103086563e-05    3    3   13    2
 -0.0008857995117279639    3    3   13    3
 -0.01585397417764697    3    3   13    4
 -0.0004493772313383136    3    3   13    5
 0.0006198375109467097    3    3   13    6
 0.001266622671321376    3    3   13    7
 0.1200293254741451    3    3   13    8
 0.007580943844425365    3    3   13    9
 -5.644152013169592e-05    3    3   13   10
 -0.00183094361977168    3    3   13   11
 0.01583346740383306    3    3   13   12
 0.2939479803506111    3    3   13   13
 0.0002690218142810639    3    3   14    1
 -0.001302866742714844    3    3   14    2
 0.00734224567859588    3    3   14    3
 0.0008590689433909133    3    3   14    4
 -0.0006212999044039147    3    3   14    5
 -0.01877136482739526    3    3   14    6
 0.001731593621078911    3    3   14    7
 -0.001040759372402417    3    3   14    8
 -0.002793714990183526    3    3   14    9
 -0.145357730374713    3    3   14   10
 -0.02732507479228134    3    3   14   11
 0.0008784808322345856    3    3   14   12
 -0.004642045267488425    3    3   14   13
 0.1988964047501838    3    3   14   14
 -0.002140311782729946    4    1    1    1
 -0.004141998410547205    4    1    2    1
 -0.1544138227481305    4    1    2    2
 -0.003575559742063457    4    1    3    1
 -0.03363453787403635    4    1    3    2
 0.1536178865818763    4    1    3    3
 0.2094030485144585    4    1    4    1
 -0.002620991398635149    4    1    4    2
 0.0005035886086093982    4    1    4    3
 0.002789785602277967    4    1    4    4
 7.312350232531115e-05    4    1    5    1
 0.001514658370305923    4    1    5    2
 -0.0008743897036031247    4    1    5    3
 -0.0007923466582027954    4    1    5    4
 -0.001520799143460274    4    1    5    5
 0.002134724834009841    4    1    6    1
 -0.01422049893255126    4    1    6    2
 -0.140361677337882    4    1    6    3
 0.0008180491182664951    4    1    6    4
 0.0004911018521709734    4    1    6    5
 -0.005814783137093403    4    1    6    6
 -0.003374170405718323    4    1    7    1
 -0.1386805375975237    4    1    7    2
 0.01393661315948881    4    1    7    3
 -0.001558507190382526    4    1    7    4
 -0.0007498852290858862    4    1    7    5
 0.002273420575556274    4    1    7    6
 0.005775441356109743    4    1    7    7
 0.0001727428909829541    4    1    8    1
 0.002194291305385263    4    1    8    2
 0.001010414879629199    4    1    8    3
 -0.1423126200101665    4    1    8    4
 -0.03432552953727052    4    1    8    5
 -0.0007126167263407021    4    1    8    6
 0.0006347137880325995    4    1    8    7
 0.01429130278986774    4    1    8    8
 -7.431618209137458e-05    4    1    9    1
 0.001877744976340866    4    1    9    2
 0.0003622623974239014    4    1    9    3
 -0.03555685905732273    4    1    9    4
 0.1362248059144214    4    1    9    5
 -0.0002212373482341282    4    1    9    6
 -0.0007913422234331145    4    1    9    7
 0.01274366853398512    4    1    9    8
 -0.01472009447289958    4    1    9    9
 3.177205308190975e-05    4    1   10    1
 0.002509225468340349    4    1   10    2
 -0.01037359997319522    4    1   10    3
 0.0005443809213009493    4    1   10    4
 -0.001440543328531017    4    1   10    5
 0.1540243985908229    4    1   10    6
 -0.01400303254409739    4    1   10    7
 -0.001179009431088712    4    1   10    8
 0.001580402375327056    4    1   10    9
 -0.002006557958189138    4    1   10   10
 -0.0009465599789864367    4    1   11    1
 -0.009923065645723927    4    1   11    2
 -0.002176185798890241    4    1   11    3
 0.00074345979549496    4    1   11    4
 0.001201677815858095    4    1   11    5
 -0.01217733508978766    4    1   11    6
 -0.1335527285650948    4    1   11    7
 -0.002119099093902949    4    1   11    8
 0.001224634978396209    4    1   11    9
 -0.0005815912612053432    4    1   11   10
 0.0009628002508039451    4    1   11   11
 -0.0006537940768830824    4    1   12    1
 8.311637979425274e-05    4    1   12    2
 0.0006102107655430664    4    1   12    3
 -0.001214824958458101    4    1   12    4
 -0.003447574803314155    4    1   12    5
 0.0005978332871783738    4    1   12    6
 -0.0008137504335067706    4    1   12    7
 -0.02586288840324789    4    1   12    8
 0.1450203416002896    4    1   12    9
 -0.003840153327998461    4    1   12   10
 -0.001279936167651628    4    1   12   11