 &FCI NORB=  14,NELEC= 8,MS2=2,
  ORBSYM=1,1,1,1,1,1,1,1,1,1,1,1,1,1
  ISYM=1,
 &END
 0.7142857142857153    1    1    1    1
 8.132383655379272e-15    1    1    2    1
 0.7142857142857159    1    1    2    2
 1.097386070902928e-14    1    1    3    1
 0.7142857142857135    1    1    3    3
 -1.512678871051776e-15    1    1    4    1
 -1.239286451237831e-14    1    1    4    2
 6.196432256189155e-15    1    1    4    3
 0.7142857142857155    1    1    4    4
 3.871902798380233e-15    1    1    5    2
 4.028027911218146e-15    1    1    5    3
 0.7142857142857135    1    1    5    5
 -6.137451658005944e-15    1    1    6    1
 -1.4883927423881e-15    1    1    6    2
 1.65145674912992e-15    1    1    6    4
 9.442099879741761e-15    1    1    6    5
 0.7142857142857146    1    1    6    6
 1.1518563880486e-15    1    1    7    1
 -9.506284648352903e-15    1    1    7    4
 2.130240428499519e-15    1    1    7    5
 0.7142857142857142    1    1    7    7
 4.090477956353311e-15    1    1    8    2
 -1.162264728904461e-15    1    1    8    4
 -1.094610513341365e-15    1    1    8    5
 -5.723720108985475e-15    1    1    8    6
 -7.511352650979575e-15    1    1    8    7
 0.7142857142857154    1    1    8    8
 4.78089789979208e-15    1    1    9    3
 -7.500944310123714e-15    1    1    9    6
 6.286637876939949e-15    1    1    9    7
 0.7142857142857136    1    1    9    9
 -2.498001805406602e-15    1    1   10    4
 -3.351485755587191e-15    1    1   10    5
 -1.148386941096646e-15    1    1   10    6
 2.383510055992133e-15    1    1   10    8
 -9.256484467812243e-15    1    1   10    9
 0.7142857142857149    1    1   10   10
 -3.302913498259841e-15    1    1   11    4
 3.122502256758253e-15    1    1   11    5
 9.060460715026863e-15    1    1   11    8
 3.032296636007459e-15    1    1   11    9
 0.7142857142857139    1    1   11   11
 4.73232564246473e-15    1    1   12    7
 3.025357742103552e-15    1    1   12   10
 4.989064716909297e-15    1    1   12   11
 0.7142857142857133    1    1   12   12
 4.307318390850412e-15    1    1   13    6
 -1.550842787523266e-15    1    1   13    8
 -1.304512053934559e-14    1    1   13   10
 3.719247132494274e-15    1    1   13   11
 0.7142857142857149    1    1   13   13
 6.390721285498557e-15    1    1   14    8
 2.137179322403426e-15    1    1   14   10
 -1.264266469291897e-14    1    1   14   12
 -5.259681579161679e-15    1    1   14   13
 0.7142857142857142    1    1   14   14
 8.132383655379272e-15    2    1    1    1
 0.7142857142857159    2    1    2    1
 5.245803791353865e-15    2    1    2    2
 -1.665334536937735e-15    2    1    3    2
 -1.503658308976696e-14    2    1    3    3
 -1.244837566360957e-14    2    1    4    1
 -0.4690377862916174    2    1    4    2
 -0.1873648735675584    2    1    4    3
 3.934352843515398e-15    2    1    5    1
 -0.187364873567558    2    1    5    2
 0.469037786291615    2    1    5    3
 -3.601285936127852e-15    2    1    5    4
 5.669076319492206e-15    2    1    5    5
 -1.509209424099822e-15    2    1    6    1
 -9.204442763532938e-15    2    1    6    2
 3.464242781525684e-15    2    1    6    3
 0.4552694511229835    2    1    6    4
 0.2187047500410203    2    1    6    5
 -1.438085761584773e-15    2    1    6    6
 4.232725281383409e-15    2    1    7    2
 -0.2187047500410194    2    1    7    4
 0.4552694511229819    2    1    7    5
 4.083539062449404e-15    2    1    8    1
 1.231653667943533e-15    2    1    8    2
 -5.280498260873401e-15    2    1    8    4
 -6.605826996519681e-15    2    1    8    5
 -0.5048010066562975    2    1    8    6
 0.01667286703348581    2    1    8    7
 -1.516148318003729e-15    2    1    8    8
 -6.494804694057166e-15    2    1    9    4
 4.829470157119431e-15    2    1    9    5
 0.01667286703348552    2    1    9    6
 0.5048010066562959    2    1    9    7
 1.082467449009528e-15    2    1    9    9
 1.637578961322106e-15    2    1   10    2
 -1.255939796607208e-15    2    1   10    3
 -1.103284130721249e-15    2    1   10    5
 -5.398459457239824e-15    2    1   10    6
 -5.440092820663267e-15    2    1   10    7
 0.4759741691484246    2    1   10    8
 -0.1689693200548386    2    1   10    9
 1.189326415129699e-14    2    1   10   10
 2.262079412673756e-15    2    1   11    3
 -5.693362448155881e-15    2    1   11    6
 5.48172618408671e-15    2    1   11    7
 0.1689693200548385    2    1   11    8
 0.4759741691484228    2    1   11    9
 5.426215032855453e-15    2    1   11   10
 -9.943434964299058e-15    2    1   11   11
 2.234323837058128e-15    2    1   12    5
 2.445960101127298e-15    2    1   12    8
 8.187894806610529e-15    2    1   12    9
 -0.2681481305164912    2    1   12   10
 0.4280170801695145    2    1   12   11
 3.753941602013811e-15    2    1   12   12
 2.386979502944087e-15    2    1   13    4
 2.130240428499519e-15    2    1   13    6
 -7.119305145408816e-15    2    1   13    8
 1.679212324745549e-15    2    1   13    9
 -0.4280170801695182    2    1   13   10
 -0.2681481305164912    2    1   13   11
 7.618905506490137e-15    2    1   13   12
 6.106226635438361e-15    2    1   13   13
 -2.452898995031205e-15    2    1   14    6
 1.03667074924374e-14    2    1   14   10
 -0.1746798692631699    2    1   14   12
 -0.6925973035659708    2    1   14   13
 -1.25732757538799e-14    2    1   14   14
 0.7142857142857159    2    2    1    1
 5.259681579161679e-15    2    2    2    1
 1.071428571428573    2    2    2    2
 -1.679212324745549e-15    2    2    3    1
 0.3571428571428564    2    2    3    3
 -0.4690377862916174    2    2    4    1
 -1.27675647831893e-15    2    2    4    2
 6.453171330633722e-15    2    2    4    3
 0.7142857142857151    2    2    4    4
 -0.187364873567558    2    2    5    1
 1.013078509970455e-15    2    2    5    2
 -6.557254739192331e-15    2    2    5    3
 0.714285714285713    2    2    5    5
 -9.13852327144582e-15    2    2    6    1
 -0.3563226287053771    2    2    6    2
 0.02419100412662042    2    2    6    3
 -3.684552662974738e-15    2    2    6    4
 0.7142857142857145    2    2    6    6
 4.163336342344337e-15    2    2    7    1
 0.02419100412662126    2    2    7    2
 0.3563226287053752    2    2    7    3
 -1.748601263784622e-15    2    2    7    4
 1.748601263784622e-15    2    2    7    5
 0.714285714285713    2    2    7    7
 1.259409243559162e-15    2    2    8    1
 8.326672684688674e-15    2    2    8    2
 -1.304512053934559e-15    2    2    8    3
 -0.3268536774212746    2    2    8    4
 -0.1439364233415353    2    2    8    5
 2.228252304892209e-15    2    2    8    6
 -1.429412144204889e-15    2    2    8    7
 0.7142857142857151    2    2    8    8
 1.720845688168993e-15    2    2    9    2
 2.151057110211241e-15    2    2    9    3
 -0.1439364233415343    2    2    9    4
 0.3268536774212727    2    2    9    5
 -1.092875789865388e-15    2    2    9    6
 0.7142857142857123    2    2    9    9
 1.665334536937735e-15    2    2   10    1
 1.110223024625157e-15    2    2   10    2
 -3.927413949611491e-15    2    2   10    4
 -5.190292640122607e-15    2    2   10    5
 -0.340325219828345    2    2   10    6
 -0.1083040403537777    2    2   10    7
 4.69416172599324e-15    2    2   10    8
 0.7142857142857169    2    2   10   10
 -5.259681579161679e-15    2    2   11    4
 2.990663272584015e-15    2    2   11    5
 -0.1083040403537782    2    2   11    6
 0.3403252198283435    2    2   11    7
 1.335737076502141e-15    2    2   11    8
 -6.564193633096238e-15    2    2   11    9
 0.714285714285713    2    2   11   11
 1.158795281952507e-15    2    2   12    3
 6.605826996519681e-15    2    2   12    7
 -0.07743376007246552    2    2   12    8
 0.3486474339633129    2    2   12    9
 -3.747002708109903e-15    2    2   12   10
 -6.598888102615774e-15    2    2   12   11
 0.3998611365589734    2    2   12   12
 -1.02695629777827e-15    2    2   13    2
 1.637578961322106e-15    2    2   13    4
 1.082467449009528e-15    2    2   13    5
 4.815592369311616e-15    2    2   13    6
 -0.3486474339633153    2    2   13    8
 -0.07743376007246416    2    2   13    9
 -1.217081990745328e-14    2    2   13   10
 1.137978600240785e-15    2    2   13   11
 0.169375929014499    2    2   13   12
 1.028710292012453    2    2   13   13
 -1.013078509970455e-15    2    2   14    4
 -1.342675970406049e-15    2    2   14    6
 4.902328543110457e-15    2    2   14    8
 0.4805969783823202    2    2   14   10
 0.1553337863637884    2    2   14   11
 1.18099974244501e-14    2    2   14   13
 0.7142857142857117    2    2   14   14
 1.092528845170193e-14    3    1    1    1
 -1.693090112553364e-15    3    1    2    2
 0.7142857142857136    3    1    3    1
 -1.504352198367087e-14    3    1    3    2
 -6.571132527000145e-15    3    1    3    3
 6.189493362285248e-15    3    1    4    1
 -0.1873648735675584    3    1    4    2
 0.469037786291616    3    1    4    3
 -2.997602166487923e-15    3    1    4    4
 3.975986206938842e-15    3    1    5    1
 0.469037786291615    3    1    5    2
 0.1873648735675578    3    1    5    3
 3.37924133120282e-15    3    1    5    4
 3.668940151690947e-15    3    1    5    5
 3.471181675429591e-15    3    1    6    2
 -9.947771772989e-15    3    1    6    3
 -0.2187047500410193    3    1    6    4
 0.4552694511229818    3    1    6    5
 -2.0643209364124e-15    3    1    7    3
 -0.4552694511229819    3    1    7    4
 -0.2187047500410192    3    1    7    5
 1.798908244587949e-15    3    1    8    4
 4.669875597329565e-15    3    1    8    5
 -0.01667286703348636    3    1    8    6
 -0.5048010066562966    3    1    8    7
 4.822531263215524e-15    3    1    9    1
 4.73232564246473e-15    3    1    9    4
 -1.599415044850616e-15    3    1    9    5
 -0.5048010066562952    3    1    9    6
 0.01667286703348587    3    1    9    7
 2.432082313319484e-15    3    1    9    8
 -1.255939796607208e-15    3    1   10    2
 -2.6402491304367e-15    3    1   10    3
 1.615027556134407e-15    3    1   10    6
 3.684552662974738e-15    3    1   10    7
 -0.1689693200548384    3    1   10    8
 -0.4759741691484235    3    1   10    9
 3.393119119010635e-15    3    1   10   10
 2.296773882193293e-15    3    1   11    2
 -1.334002353026165e-15    3    1   11    3
 4.956972332603726e-15    3    1   11    6
 -2.421673972463623e-15    3    1   11    7
 0.4759741691484228    3    1   11    8
 -0.168969320054838    3    1   11    9
 -9.166278847061449e-15    3    1   11   10
 -3.493733080617289e-15    3    1   11   11
 -2.997602166487923e-15    3    1   12    4
 -5.152128723651117e-15    3    1   12    8
 -4.246603069191224e-15    3    1   12    9
 0.4280170801695128    3    1   12   10
 0.2681481305164899    3    1   12   11
 1.678171490659963e-14    3    1   12   12
 -1.096345236817342e-15    3    1   13    4
 3.146788385421928e-15    3    1   13    5
 3.804248582817138e-15    3    1   13    8
 -2.768618667658984e-15    3    1   13    9
 -0.2681481305164903    3    1   13   10
 0.4280170801695157    3    1   13   11
 5.547645676173829e-15    3    1   13   12
 -1.03667074924374e-14    3    1   13   13
 -3.948230631323213e-15    3    1   14    7
 -4.572731082674864e-15    3    1   14   10
 1.067201882420932e-14    3    1   14   11
 -0.6925973035659717    3    1   14   12
 0.1746798692631693    3    1   14   13
 -8.659739592076221e-15    3    1   14   14
 -1.693090112553364e-15    3    2    2    1
 -1.504005253671892e-14    3    2    3    1
 0.3571428571428564    3    2    3    2
 -0.1873648735675584    3    2    4    1
 6.46011022453763e-15    3    2    4    2
 -2.896988204881268e-15    3    2    4    3
 0.469037786291615    3    2    5    1
 -6.557254739192331e-15    3    2    5    2
 -8.239936510889834e-15    3    2    5    3
 3.467712228477637e-15    3    2    6    1
 0.02419100412662041    3    2    6    2
 0.3563226287053754    3    2    6    3
 -6.369904603786836e-15    3    2    6    5
 0.3563226287053752    3    2    7    2
 -0.02419100412662024    3    2    7    3
 9.880984919163893e-15    3    2    7    4
 -1.27675647831893e-15    3    2    8    2
 4.306451029112424e-15    3    2    8    3
 0.143936423341534    3    2    8    4
 -0.3268536774212735    3    2    8    5
 4.243567303108264e-15    3    2    8    6
 9.065664885454794e-15    3    2    8    7
 2.17881268582687e-15    3    2    9    2
 -0.326853677421273    3    2    9    4
 -0.1439364233415339    3    2    9    5
 7.469719287556131e-15    3    2    9    6
 -4.274358644806853e-15    3    2    9    7
 -1.262878690511116e-15    3    2   10    1
 0.108304040353777    3    2   10    6
 -0.3403252198283438    3    2   10    7
 3.344546861683284e-15    3    2   10    9
 1.186550857568136e-15    3    2   10   10
 2.282896094385478e-15    3    2   11    1
 1.339206523454095e-15    3    2   11    4
 -0.3403252198283429    3    2   11    6
 -0.108304040353777    3    2   11    7
 -1.441728680884324e-14    3    2   11    8
 -1.457167719820518e-15    3    2   11    9
 -1.408595462493167e-15    3    2   11   10
 -1.47798440153224e-15    3    2   11   11
 1.179611963664229e-15    3    2   12    2
 -1.373900992973631e-15    3    2   12    7
 0.3486474339633127    3    2   12    8
 0.0774337600724655    3    2   12    9
 -7.722988915048745e-15    3    2   12   10
 -3.178013407989511e-15    3    2   12   11
 0.1693759290144988    3    2   12   12
 1.856154119295184e-15    3    2   13    3
 -0.07743376007246533    3    2   13    8
 0.3486474339633133    3    2   13    9
 8.81239525796218e-15    3    2   13   10
 -3.774758283725532e-15    3    2   13   11
 0.3144245777267395    3    2   13   12
 -0.1693759290144985    3    2   13   13
 1.033895191682177e-15    3    2   14    4
 -1.661865089985781e-15    3    2   14    5
 2.477185123694881e-15    3    2   14    9
 0.1553337863637886    3    2   14   10
 -0.4805969783823186    3    2   14   11
 1.122019144261799e-14    3    2   14   12
 6.675215935558754e-15    3    2   14   13
 0.7142857142857135    3    3    1    1
 -1.499841917329547e-14    3    3    2    1
 0.3571428571428564    3    3    2    2
 -6.458375501061653e-15    3    3    3    1
 1.07142857142857    3    3    3    3
 0.469037786291616    3    3    4    1
 -2.890049310977361e-15    3    3    4    2
 -4.810388198883686e-15    3    3    4    3
 0.7142857142857145    3    3    4    4
 0.1873648735675578    3    3    5    1
 -8.212180935274205e-15    3    3    5    2
 -1.464193349898224e-14    3    3    5    3
 0.7142857142857126    3    3    5    5
 -9.933893985181186e-15    3    3    6    1
 0.3563226287053753    3    3    6    2
 -0.02419100412662105    3    3    6    3
 -8.124143718868382e-15    3    3    6    5
 0.7142857142857129    3    3    6    6
 -2.0643209364124e-15    3    3    7    1
 -0.02419100412662026    3    3    7    2
 -0.3563226287053751    3    3    7    3
 9.686695889854491e-15    3    3    7    4
 -4.541506060107281e-15    3    3    7    5
 0.7142857142857136    3    3    7    7
 4.305583667374435e-15    3    3    8    2
 0.3268536774212729    3    3    8    4
 0.1439364233415342    3    3    8    5
 4.951985002610293e-15    3    3    8    6
 6.985731437758602e-15    3    3    8    7
 0.7142857142857141    3    3    8    8
 1.253684656088438e-14    3    3    9    3
 0.1439364233415343    3    3    9    4
 -0.3268536774212727    3    3    9    5
 6.646592998205136e-15    3    3    9    6
 -6.862566070964249e-15    3    3    9    7
 0.7142857142857133    3    3    9    9
 -2.647188024340608e-15    3    3   10    1
 -5.499073418846478e-15    3    3   10    4
 -4.527628272299467e-15    3    3   10    5
 0.3403252198283434    3    3   10    6
 0.1083040403537779    3    3   10    7
 -1.040313668543291e-14    3    3   10    8
 7.875644580934704e-15    3    3   10    9
 0.7142857142857116    3    3   10   10
 -1.332267629550188e-15    3    3   11    1
 -4.270889197854899e-15    3    3   11    4
 6.519090822720841e-15    3    3   11    5
 0.1083040403537774    3    3   11    6
 -0.3403252198283434    3    3   11    7
 -9.390058175462457e-15    3    3   11    8
 2.671474153004283e-15    3    3   11    9
 -1.009609063018502e-15    3    3   11   10
 0.7142857142857132    3    3   11   11
 -2.63504496000877e-15    3    3   12    3
 3.036633444697401e-15    3    3   12    6
 7.764622278472189e-15    3    3   12    7
 0.07743376007246444    3    3   12    8
 -0.3486474339633127    3    3   12    9
 2.383510055992133e-15    3    3   12   10
 -1.506086921843064e-14    3    3   12   11
 1.028710292012452    3    3   12   12
 1.863093013199091e-15    3    3   13    2
 8.075137780672037e-15    3    3   13    6
 -2.244732177913988e-15    3    3   13    7
 0.3486474339633135    3    3   13    8
 0.07743376007246508    3    3   13    9
 8.007483565108942e-15    3    3   13   10
 -2.820660371938288e-15    3    3   13   11
 -0.1693759290144984    3    3   13   12
 0.3998611365589744    3    3   13   13
 2.043504254700679e-15    3    3   14    4
 1.222980050563649e-15    3    3   14    5
 1.480759959093803e-14    3    3   14    8
 -0.4805969783823176    3    3   14   10
 -0.1553337863637878    3    3   14   11
 1.038058528024521e-14    3    3   14   12
 -4.496403249731884e-15    3    3   14   13
 0.7142857142857151    3    3   14   14
 -1.540434446667405e-15    4    1    1    1
 -1.239286451237831e-14    4    1    2    1
 -0.4690377862916174    4    1    2    2
 6.203371150093062e-15    4    1    3    1
 -0.1873648735675584    4    1    3    2
 0.4690377862916161    4    1    3    3
 0.7142857142857155    4    1    4    1
 -2.990663272584015e-15    4    1    4    3
 -3.594347042223944e-15    4    1    5    2
 3.37924133120282e-15    4    1    5    3
 1.616762279610384e-15    4    1    6    1
 0.4552694511229835    4    1    6    2
 -0.2187047500410193    4    1    6    3
 1.4883927423881e-15    4    1    6    4
 -1.269817584415023e-15    4    1    6    6
 -9.520162436160717e-15    4    1    7    1
 -0.2187047500410194    4    1    7    2
 -0.4552694511229819    4    1    7    3
 1.540434446667405e-15    4    1    7    4
 -4.100886297209172e-15    4    1    7    5
 1.054711873393899e-15    4    1    7    7
 -1.193489751472043e-15    4    1    8    1
 -5.273559366969494e-15    4    1    8    2
 1.828398543679555e-15    4    1    8    3
 0.3537466675058269    4    1    8    4
 0.3605070540847289    4    1    8    5
 -6.480926906249351e-15    4    1    9    2
 4.718447854656915e-15    4    1    9    3
 0.360507054084728    4    1    9    4
 -0.3537466675058251    4    1    9    5
 -2.137179322403426e-15    4    1    9    7
 -2.539635168830046e-15    4    1   10    1
 -1.484923295436147e-15    4    1   10    4
 4.593547764386585e-15    4    1   10    5
 0.3901324417193086    4    1   10    6
 0.3207783015330957    4    1   10    7
 -1.061650767297806e-14    4    1   10    8
 2.872702076217593e-15    4    1   10    9
 -3.871902798380233e-15    4    1   10   10
 -3.323730179971562e-15    4    1   11    1
 4.392319841173276e-15    4    1   11    4
 2.8796409701215e-15    4    1   11    5
 0.3207783015330952    4    1   11    6
 -0.3901324417193072    4    1   11    7
 1.623701173514291e-15    4    1   11    8
 6.966649479522857e-15    4    1   11    9
 1.332267629550188e-15    4    1   11   11
 -2.983724378680108e-15    4    1   12    3
 4.517219931443606e-15    4    1   12    6
 -1.915134717478395e-15    4    1   12    7
 -0.08121378433158044    4    1   12    8
 -0.4985041244070794    4    1   12    9
 1.210143096841421e-14    4    1   12   10
 0.3240773434288233    4    1   12   12
 2.400857290751901e-15    4    1   13    2
 -1.061650767297806e-15    4    1   13    3
 -1.457167719820518e-15    4    1   13    4
 -1.561251128379126e-15    4    1   13    6
 -3.622102617839573e-15    4    1   13    7
 0.4985041244070819    4    1   13    8
 -0.08121378433158136    4    1   13    9
 1.128264148775315e-14    4    1   13   10
 -2.893518757929314e-15    4    1   13   11
 -0.3873963297353792    4    1   13   12
 -0.3240773434288227    4    1   13   13
 1.845745778439323e-15    4    1   14    4
 2.782496455466799e-15    4    1   14    5
 2.144118216307334e-15    4    1   14    8
 3.080868893334809e-15    4    1   14    9
 -0.7126622666287706    4    1   14   10
 0.04813081503772496    4    1   14   11
 -1.386391002000664e-14    4    1   14   13
 2.164934898019055e-15    4    1   14   14
 -1.23789867245705e-14    4    2    1    1
 -0.4690377862916174    4    2    2    1
 -1.249000902703301e-15    4    2    2    2
 -0.1873648735675584    4    2    3    1
 6.46011022453763e-15    4    2    3    2
 -2.883110417073453e-15    4    2    3    3
 0.7142857142857152    4    2    4    2
 2.123301534595612e-15    4    2    4    4
 -3.566591466608315e-15    4    2    5    1
 0.4552694511229835    4    2    6    1
 -3.688022109926692e-15    4    2    6    2
 -0.2415853827532085    4    2    6    4
 -0.2630352129433426    4    2    6    5
 2.399122567275924e-15    4    2    6    6
 -0.2187047500410194    4    2    7    1
 -1.720845688168993e-15    4    2    7    2
 9.894862706971708e-15    4    2    7    3
 0.2630352129433413    4    2    7    4
 -0.2415853827532066    4    2    7    5
 -5.297845495633169e-15    4    2    8    1
 -0.3268536774212747    4    2    8    2
 0.143936423341534    4    2    8    3
 -5.703770789011742e-15    4    2    8    4
 0.3358525188250217    4    2    8    6
 0.1214664810021779    4    2    8    7
 -3.644654023027272e-15    4    2    8    8
 -6.467049118441537e-15    4    2    9    1
 -0.1439364233415343    4    2    9    2
 -0.326853677421273    4    2    9    3
 1.429412144204889e-15    4    2    9    5
 0.1214664810021765    4    2    9    6
 -0.3358525188250194    4    2    9    7
 1.77635683940025e-15    4    2    9    8
 2.220446049250313e-15    4    2    9    9
 -3.927413949611491e-15    4    2   10    2
 0.1504435020920169    4    2   10    4
 0.3239101311883488    4    2   10    5
 1.148386941096646e-15    4    2   10    6
 1.637578961322106e-15    4    2   10    7
 -0.2682273374766972    4    2   10    8
 0.2358073701950947    4    2   10    9
 -1.609823385706477e-14    4    2   10   10
 -5.245803791353865e-15    4    2   11    2
 1.346145417358002e-15    4    2   11    3
 0.3239101311883483    4    2   11    4
 -0.1504435020920152    4    2   11    5
 -1.443289932012704e-15    4    2   11    6
 9.71445146547012e-15    4    2   11    7
 -0.2358073701950943    4    2   11    8
 -0.2682273374766936    4    2   11    9
 7.230327447871332e-15    4    2   11   11
 3.70536934468646e-15    4    2   12    4
 -2.269018306577664e-15    4    2   12    5
 0.04575942994429139    4    2   12    6
 -0.3541992306306384    4    2   12    7
 3.757411048965764e-15    4    2   12    8
 3.927413949611491e-15    4    2   12    9
 0.1742828521889113    4    2   12   10
 -0.01177047826964635    4    2   12   11
 -6.369904603786836e-15    4    2   12   12
 2.414735078559715e-15    4    2   13    1
 1.609823385706477e-15    4    2   13    2
 -2.484124017598788e-15    4    2   13    4
 -2.775557561562891e-15    4    2   13    5
 -0.3541992306306406    4    2   13    6
 -0.04575942994429225    4    2   13    7
 -6.13398221105399e-15    4    2   13    9
 0.6910231499084208    4    2   13   10
 -0.04666938179898505    4    2   13   11
 -2.220446049250313e-15    4    2   13   12
 1.396105453466134e-14    4    2   13   13
 -1.02695629777827e-15    4    2   14    2
 1.020017403874363e-15    4    2   14    3
 1.505739977147869e-15    4    2   14    6
 1.013078509970455e-15    4    2   14    7
 -0.4635066788120329    4    2   14    8
 0.2006579166466292    4    2   14    9
 8.049116928532385e-15    4    2   14   10
 2.185751579730777e-15    4    2   14   11
 0.2963798115666852    4    2   14   12
 0.408975608211566    4    2   14   13
 1.544597783009749e-14    4    2   14   14
 6.189493362285248e-15    4    3    1    1
 -0.1873648735675584    4    3    2    1
 6.446232436729815e-15    4    3    2    2
 0.469037786291616    4    3    3    1
 -2.8796409701215e-15    4    3    3    2
 -4.86242990316299e-15    4    3    3    3
 -3.060052211623088e-15    4    3    4    1
 0.7142857142857145    4    3    4    3
 -3.094746681142624e-15    4    3    4    4
 3.382710778154774e-15    4    3    5    1
 2.706168622523819e-15    4    3    5    4
 -0.2187047500410193    4    3    6    1
 -0.2630352129433423    4    3    6    4
 0.2415853827532074    4    3    6    5
 -0.4552694511229819    4    3    7    1
 9.908740494779522e-15    4    3    7    2
 9.769962616701378e-15    4    3    7    3
 -0.2415853827532085    4    3    7    4
 -0.2630352129433423    4    3    7    5
 1.817990202823694e-15    4    3    8    1
 0.143936423341534    4    3    8    2
 0.3268536774212729    4    3    8    3
 -2.074729277268261e-15    4    3    8    4
 -3.096481404618601e-15    4    3    8    5
 0.1214664810021771    4    3    8    6
 -0.3358525188250213    4    3    8    7
 2.900891332702216e-15    4    3    8    8
 4.690692279041286e-15    4    3    9    1
 -0.326853677421273    4    3    9    2
 0.1439364233415343    4    3    9    3
 -5.218048215738236e-15    4    3    9    4
 3.295974604355933e-15    4    3    9    5
 -0.335852518825021    4    3    9    6
 -0.1214664810021771    4    3    9    7
 5.39499001028787e-15    4    3    9    8
 -2.289834988289385e-15    4    3    9    9
 -5.47131784323085e-15    4    3   10    3
 -0.3239101311883479    4    3   10    4
 0.1504435020920151    4    3   10    5
 -4.623038063478191e-15    4    3   10    6
 -0.2358073701950946    4    3   10    8
 -0.2682273374766942    4    3   10    9
 1.137978600240785e-15    4    3   10   10
 1.339206523454095e-15    4    3   11    2
 -4.257011410047085e-15    4    3   11    3
 0.150443502092015    4    3   11    4
 0.3239101311883477    4    3   11    5
 -9.296383107759709e-15    4    3   11    6
 1.609823385706477e-15    4    3   11    7
 0.2682273374766965    4    3   11    8
 -0.2358073701950938    4    3   11    9
 -7.042977312465837e-15    4    3   11   10
 -1.040834085586084e-15    4    3   11   11
 -2.949029909160572e-15    4    3   12    1
 -3.663735981263017e-15    4    3   12    4
 0.3541992306306376    4    3   12    6
 0.04575942994429223    4    3   12    7
 -2.973316037824247e-15    4    3   12    8
 0.6910231499084192    4    3   12   10
 -0.04666938179898519    4    3   12   11
 5.075800890708138e-15    4    3   12   12
 -1.103284130721249e-15    4    3   13    1
 -1.373900992973631e-15    4    3   13    4
 3.403527459866496e-15    4    3   13    5
 0.0457594299442922    4    3   13    6
 -0.354199230630639    4    3   13    7
 -6.692563170318522e-15    4    3   13    8
 -0.1742828521889102    4    3   13   10
 0.01177047826964871    4    3   13   11
 1.292715934297917e-14    4    3   13   12
 -6.401129626354418e-15    4    3   13   13
 1.02695629777827e-15    4    3   14    2
 2.01574867908505e-15    4    3   14    3
 2.775557561562891e-15    4    3   14    6
 -6.168676680573526e-15    4    3   14    7
 0.2006579166466294    4    3   14    8
 0.4635066788120321    4    3   14    9
 1.086630785351872e-14    4    3   14   10
 -2.400857290751901e-15    4    3   14   11
 -0.4089756082115691    4    3   14   12
 0.2963798115666865    4    3   14   13
 -3.608224830031759e-15    4    3   14   14
 0.7142857142857157    4    4    1    1
 0.7142857142857152    4    4    2    2
 -3.011479954295737e-15    4    4    3    1
 0.7142857142857145    4    4    3    3
 2.17881268582687e-15    4    4    4    2
 -3.060052211623088e-15    4    4    4    3
 1.071428571428573    4    4    4    4
 2.706168622523819e-15    4    4    5    3
 1.443289932012704e-15    4    4    5    4
 0.3571428571428569    4    4    5    5
 1.547373340571312e-15    4    4    6    1
 -0.2415853827532085    4    4    6    2
 -0.2630352129433423    4    4    6    3
 -6.376843497690743e-15    4    4    6    5
 0.7142857142857147    4    4    6    6
 1.582067810090848e-15    4    4    7    1
 0.2630352129433413    4    4    7    2
 -0.2415853827532085    4    4    7    3
 4.85722573273506e-15    4    4    7    4
 -1.706967900361178e-15    4    4    7    5
 0.7142857142857131    4    4    7    7
 0.3537466675058268    4    4    8    1
 -5.752343046339092e-15    4    4    8    2
 -2.100750129407913e-15    4    4    8    3
 0.7142857142857159    4    4    8    8
 0.360507054084728    4    4    9    1
 -5.204170427930421e-15    4    4    9    3
 1.637578961322106e-15    4    4    9    4
 6.439293542825908e-15    4    4    9    6
 -4.413136522884997e-15    4    4    9    7
 0.7142857142857123    4    4    9    9
 -1.471045507628332e-15    4    4   10    1
 0.1504435020920169    4    4   10    2
 -0.3239101311883479    4    4   10    3
 2.42861286636753e-15    4    4   10    4
 -5.537237335317968e-15    4    4   10    5
 -2.251671071817896e-15    4    4   10    6
 1.096345236817342e-15    4    4   10    8
 1.068185365929897    4    4   10   10
 4.413136522884997e-15    4    4   11    1
 0.3239101311883483    4    4   11    2
 0.150443502092015    4    4   11    3
 6.883382752675971e-15    4    4   11    4
 -4.933553565678039e-15    4    4   11    5
 -1.859623566247137e-15    4    4   11    7
 -4.551914400963142e-15    4    4   11    8
 -0.0480214220352651    4    4   11   10
 0.3603860626415305    4    4   11   11
 3.760880495917718e-15    4    4   12    2
 -3.677613769070831e-15    4    4   12    3
 -0.2918207024626825    4    4   12    4
 0.2058924428490484    4    4   12    5
 2.661065812148422e-15    4    4   12    6
 -0.3072135018809257    4    4   12    8
 -0.1821287584930572    4    4   12    9
 -4.121702978920894e-15    4    4   12   10
 -2.567390744445674e-15    4    4   12   11
 0.714285714285713    4    4   12   12
 -1.484923295436147e-15    4    4   13    1
 -2.456368441983159e-15    4    4   13    2
 -1.40165656858926e-15    4    4   13    3
 0.2058924428490503    4    4   13    4
 0.2918207024626848    4    4   13    5
 -1.790234627208065e-15    4    4   13    6
 7.382983113757291e-15    4    4   13    7
 -0.1821287584930561    4    4   13    8