 &FCI NORB=  14,NELEC= 8,MS2=0,
  ORBSYM=1,1,1,1,1,1,1,1,1,1,1,1,1,1
  ISYM=1,
 &END
 0.5548935015469656    1    1    1    1
 -0.01280574254378313    1    1    2    1
 0.5535695393708238    1    1    2    2
 0.02730547195240567    1    1    3    1
 0.0008518794735267801    1    1    3    2
 0.552054155813969    1    1    3    3
 -0.001067072252982422    1    1    4    1
 0.01712810621839096    1    1    4    2
 0.01419150857409562    1    1    4    3
 0.5574734221007897    1    1    4    4
 0.0001352017532625094    1    1    5    1
 0.004405335833089254    1    1    5    2
 -0.0214273542584882    1    1    5    3
 0.0005560637195918382    1    1    5    4
 0.5483147599233326    1    1    5    5
 -0.002003366200266421    1    1    6    1
 -0.003970201373334362    1    1    6    2
 0.003287721709995972    1    1    6    3
 -0.005466612045236397    1    1    6    4
 0.01995860471990579    1    1    6    5
 0.5548950520953698    1    1    6    6
 -0.007226734335526092    1    1    7    1
 -0.002988563214691937    1    1    7    2
 -0.00229282334685324    1    1    7    3
 -0.0211772994301416    1    1    7    4
 -0.006201145360885512    1    1    7    5
 6.35205138120043e-05    1    1    7    6
 0.5510939568622545    1    1    7    7
 -0.0003280774021832897    1    1    8    1
 0.00134750933907568    1    1    8    2
 -0.004559764767037476    1    1    8    3
 0.001787234942638698    1    1    8    4
 0.0001301122408981677    1    1    8    5
 0.006494135702458001    1    1    8    6
 0.0206027733677117    1    1    8    7
 0.5547097609651611    1    1    8    8
 -0.006351594905349388    1    1    9    1
 -0.005059439128399915    1    1    9    2
 -0.00319761253495017    1    1    9    3
 0.001567242575899186    1    1    9    4
 -0.001218961129843694    1    1    9    5
 -0.02035072861634253    1    1    9    6
 0.005847184177068754    1    1    9    7
 3.893031555887716e-05    1    1    9    8
 0.5515047754152274    1    1    9    9
 0.001285293631672894    1    1   10    1
 -0.0002880579317238313    1    1   10    2
 0.002744233189832621    1    1   10    3
 0.004830831362220345    1    1   10    4
 0.001536466472428001    1    1   10    5
 -0.001755418905190934    1    1   10    6
 0.001755521109483293    1    1   10    7
 0.005630758998847171    1    1   10    8
 -0.02166747410480982    1    1   10    9
 0.5575873410291942    1    1   10   10
 0.0004949130426973956    1    1   11    1
 0.006151014370330972    1    1   11    2
 0.0007631727555574997    1    1   11    3
 -0.001351864781476302    1    1   11    4
 0.005470301232835284    1    1   11    5
 0.0004248954899997289    1    1   11    6
 0.001141726921708285    1    1   11    7
 0.01936706024662534    1    1   11    8
 0.006493142757285611    1    1   11    9
 0.0008788328070180856    1    1   11   10
 0.5487931399603784    1    1   11   11
 0.001456375503823324    1    1   12    1
 0.001261671670443194    1    1   12    2
 -0.0002245643904877402    1    1   12    3
 0.0008741926959273333    1    1   12    4
 0.00596118463101725    1    1   12    5
 0.002372553494667589    1    1   12    6
 0.004295503598981195    1    1   12    7
 -0.004332392927195688    1    1   12    8
 0.002590676080781335    1    1   12    9
 -0.013781393698133    1    1   12   10
 0.008598572615617049    1    1   12   11
 0.5544427288654756    1    1   12   12
 -0.002037471234661657    1    1   13    1
 -0.0001299892859378989    1    1   13    2
 0.0006744596133473613    1    1   13    3
 0.00256852203444137    1    1   13    4
 -0.002140835930090986    1    1   13    5
 0.004131755562029372    1    1   13    6
 -0.004322254972456391    1    1   13    7
 -0.002782406708970189    1    1   13    8
 -0.003070055601657129    1    1   13    9
 0.01707993964259896    1    1   13   10
 0.02033286659239919    1    1   13   11
 0.0009263435680365801    1    1   13   12
 0.5521295908067458    1    1   13   13
 -0.000325325451690256    1    1   14    1
 -0.001854767705631741    1    1   14    2
 -0.001654577216123554    1    1   14    3
 0.001198692758048549    1    1   14    4
 -0.0006568732570831739    1    1   14    5
 5.414757298425124e-05    1    1   14    6
 -0.006379482477643403    1    1   14    7
 0.002144032679576951    1    1   14    8
 -0.007342042541297528    1    1   14    9
 -0.0008769076505047435    1    1   14   10
 -0.0006956582060870155    1    1   14   11
 0.01810158891282043    1    1   14   12
 0.02423314846823597    1    1   14   13
 0.5511751052443177    1    1   14   14
 -0.01280574254378312    2    1    1    1
 0.5535695393708238    2    1    2    1
 0.002800958449114743    2    1    2    2
 0.0008518794735267801    2    1    3    1
 -0.02176283531059883    2    1    3    2
 0.00630254737561094    2    1    3    3
 0.01712810621839097    2    1    4    1
 -0.3080393059606037    2    1    4    2
 0.252019553856502    2    1    4    3
 -0.005279557669167233    2    1    4    4
 0.004405335833089294    2    1    5    1
 0.2433479685742101    2    1    5    2
 0.2964951580125682    2    1    5    3
 -0.006028914077384123    2    1    5    4
 0.006052100667121451    2    1    5    5
 -0.003970201373334364    2    1    6    1
 0.005087402852549147    2    1    6    2
 0.006658664365432887    2    1    6    3
 0.3883281487538522    2    1    6    4
 -0.06571271417706616    2    1    6    5
 -3.794300870247356e-05    2    1    6    6
 -0.002988563214691944    2    1    7    1
 -0.00609347426264422    2    1    7    2
 -0.008859837374944883    2    1    7    3
 0.06489931748913733    2    1    7    4
 0.3826949817995661    2    1    7    5
 0.0006598910935327901    2    1    7    6
 0.0003631042013441735    2    1    7    7
 0.001347509339075671    2    1    8    1
 -0.0008857899703325605    2    1    8    2
 0.0003418145799083117    2    1    8    3
 -0.0004871036567636669    2    1    8    4
 0.005836508981181206    2    1    8    5
 0.2922203702069779    2    1    8    6
 -0.2640701554332385    2    1    8    7
 0.001366803991267566    2    1    8    8
 -0.005059439128399904    2    1    9    1
 -0.009166616245010847    2    1    9    2
 0.0004410921244145348    2    1    9    3
 -0.006697064857289613    2    1    9    4
 -0.00293831099861033    2    1    9    5
 0.2600342643969094    2    1    9    6
 0.2885198597926392    2    1    9    7
 0.002145154750296766    2    1    9    8
 -0.001577547503290647    2    1    9    9
 -0.000288057931723873    2    1   10    1
 -0.0004423459186732957    2    1   10    2
 0.002760704200547227    2    1   10    3
 0.001247187945286193    2    1   10    4
 0.002741980653707518    2    1   10    5
 0.001844108869965562    2    1   10    6
 -0.005848480984014484    2    1   10    7
 -0.3922725392006498    2    1   10    8
 0.05962161657012509    2    1   10    9
 0.01103916790324696    2    1   10   10
 0.006151014370331023    2    1   11    1
 0.003568422894627319    2    1   11    2
 0.001673646181288593    2    1   11    3
 -0.004354833746480488    2    1   11    4
 0.004981657957550693    2    1   11    5
 0.005732311799008962    2    1   11    6
 0.002463609861177179    2    1   11    7
 -0.05816008162479897    2    1   11    8
 -0.3810836741620355    2    1   11    9
 -0.007502498998971507    2    1   11   10
 -0.01312233688061241    2    1   11   11
 0.001261671670443222    2    1   12    1
 0.003546191518954526    2    1   12    2
 0.00317595709191551    2    1   12    3
 0.0007128622922712578    2    1   12    4
 0.003015790729548532    2    1   12    5
 -0.0008972653996688976    2    1   12    6
 0.008392932739940557    2    1   12    7
 0.004413666117736616    2    1   12    8
 -0.0003769712025025538    2    1   12    9
 0.349574673489228    2    1   12   10
 0.1796033972665062    2    1   12   11
 -0.02472075677166309    2    1   12   12
 -0.000129989285937878    2    1   13    1
 -0.004459673863077128    2    1   13    2
 2.496855612756782e-05    2    1   13    3
 0.002451803422653838    2    1   13    4
 -0.002514808903206556    2    1   13    5
 0.001588813574533721    2    1   13    6
 -0.001881370603847146    2    1   13    7
 0.002112528871335456    2    1   13    8
 -0.007106725650242802    2    1   13    9
 0.1800269943675895    2    1   13   10
 -0.3447167685600416    2    1   13   11
 -0.02010712799331241    2    1   13   12
 0.01554065926578623    2    1   13   13
 -0.001854767705631723    2    1   14    1
 -0.001127937841096241    2    1   14    2
 0.0002137549406635506    2    1   14    3
 -0.0002603414114184972    2    1   14    4
 -0.00574864418165558    2    1   14    5
 -0.000243173441678274    2    1   14    6
 -0.003982325791151865    2    1   14    7
 0.005965120434465708    2    1   14    8
 -0.005741740782589377    2    1   14    9
 -0.0002009380078913069    2    1   14   10
 0.01000016605265724    2    1   14   11
 -0.5410096208430841    2    1   14   12
 0.1083016833198849    2    1   14   13
 0.01407854252372938    2    1   14   14
 0.5535695393708238    2    2    1    1
 0.002800958449114753    2    2    2    1
 0.8323764177610783    2    2    2    2
 -0.02176283531059883    2    2    3    1
 -0.008389118638355975    2    2    3    2
 0.2761010181259547    2    2    3    3
 -0.3080393059606036    2    2    4    1
 -0.01399739511821254    2    2    4    2
 0.01647062699497841    2    2    4    3
 0.5612090637981819    2    2    4    4
 0.2433479685742101    2    2    5    1
 -0.001437241395872828    2    2    5    2
 -0.004280539807280423    2    2    5    3
 -0.0009749843833645362    2    2    5    4
 0.5440467658048235    2    2    5    5
 0.005087402852549123    2    2    6    1
 -0.2478182782190092    2    2    6    2
 0.1399339470745584    2    2    6    3
 0.004035098209129071    2    2    6    4
 -0.007011120485178012    2    2    6    5
 0.5530049503561363    2    2    6    6
 -0.00609347426264422    2    2    7    1
 0.1295331969725485    2    2    7    2
 0.2371538323012347    2    2    7    3
 0.0004269230224950311    2    2    7    4
 0.007495254208427546    2    2    7    5
 -0.003779513347080655    2    2    7    6
 0.5528356136423391    2    2    7    7
 -0.0008857899703325739    2    2    8    1
 0.005301433271025905    2    2    8    2
 0.0003324154734090719    2    2    8    3
 0.1719397181353424    2    2    8    4
 -0.2198615514364114    2    2    8    5
 0.003171713666157513    2    2    8    6
 -0.006676183177889698    2    2    8    7
 0.56065709983059    2    2    8    8
 -0.009166616245010837    2    2    9    1
 -0.009004444895776302    2    2    9    2
 -0.002735686357684737    2    2    9    3
 0.2206482798465566    2    2    9    4
 0.1658713398203397    2    2    9    5
 0.007194527331775275    2    2    9    6
 0.000640841355300405    2    2    9    7
 -0.003020705623777129    2    2    9    8
 0.5455608729251628    2    2    9    9
 -0.0004423459186732974    2    2   10    1
 -0.0003350631958055623    2    2   10    2
 0.002193452987449216    2    2   10    3
 0.005455548980445533    2    2   10    4
 0.0006328764511153216    2    2   10    5
 -0.1759072769476383    2    2   10    6
 0.2209178911567532    2    2   10    7
 -0.01113314355358971    2    2   10    8
 0.00888850969557229    2    2   10    9
 0.5588433273481078    2    2   10   10
 0.003568422894627333    2    2   11    1
 0.0117096577215788    2    2   11    2
 0.0004130289106590603    2    2   11    3
 -0.0002865865017287461    2    2   11    4
 0.007569286036508774    2    2   11    5
 -0.2145958877972902    2    2   11    6
 -0.1685712228387174    2    2   11    7
 -0.002409396867776153    2    2   11    8
 0.001618203091163115    2    2   11    9
 0.0002685613017301006    2    2   11   10
 0.5476990759094873    2    2   11   11
 0.003546191518954519    2    2   12    1
 0.00218560300463641    2    2   12    2
 0.001551433717590536    2    2   12    3
 -0.0002837555181400345    2    2   12    4
 0.009136298345736248    2    2   12    5
 0.002849006335722955    2    2   12    6
 0.004343684923119714    2    2   12    7
 -0.2704909408139962    2    2   12    8
 -0.08064794641272005    2    2   12    9
 0.002267117266981411    2    2   12   10
 -0.01287226012889382    2    2   12   11
 0.8074828204583911    2    2   12   12
 -0.004459673863077114    2    2   13    1
 -0.002446146216029634    2    2   13    2
 9.178050414211658e-05    2    2   13    3
 0.004708043986576871    2    2   13    4
 -0.004213834006423432    2    2   13    5
 0.005736053315476053    2    2   13    6
 -0.006808193533478534    2    2   13    7
 -0.08716132774712465    2    2   13    8
 0.2587850012145366    2    2   13    9
 -0.002388598198000851    2    2   13   10
 -0.01317013569554087    2    2   13   11
 -0.1061507786716787    2    2   13   12
 0.2974971914626356    2    2   13   13
 -0.001127937841096224    2    2   14    1
 -0.004223573780076385    2    2   14    2
 -0.002795514029420869    2    2   14    3
 0.0005404325219677264    2    2   14    4
 -0.002787700896381216    2    2   14    5
 0.0009074322634919137    2    2   14    6
 -0.01065092754911031    2    2   14    7
 0.006809663985001564    2    2   14    8
 -0.01195225168430443    2    2   14    9
 -0.3090999418392698    2    2   14   10
 -0.2409154134138735    2    2   14   11
 -0.01223567394544222    2    2   14   12
 0.01344765274865951    2    2   14   13
 0.5517530732062904    2    2   14   14
 0.02730547195240565    3    1    1    1
 0.0008518794735267662    3    1    2    1
 -0.02176283531059885    3    1    2    2
 0.552054155813969    3    1    3    1
 0.006302547375610885    3    1    3    2
 0.004621314530244502    3    1    3    3
 0.01419150857409558    3    1    4    1
 0.2520195538565019    3    1    4    2
 0.3073927600931412    3    1    4    3
 -0.001841205870215426    3    1    4    4
 -0.02142735425848817    3    1    5    1
 0.2964951580125682    3    1    5    2
 -0.2418466107447644    3    1    5    3
 0.008096821125852801    3    1    5    4
 -0.001584630370054518    3    1    5    5
 0.003287721709995948    3    1    6    1
 0.00665866436543289    3    1    6    2
 -0.01317150178304078    3    1    6    3
 0.06618514272268675    3    1    6    4
 0.3876663898436767    3    1    6    5
 0.002139741879607936    3    1    6    6
 -0.002292823346853226    3    1    7    1
 -0.008859837374944893    3    1    7    2
 -0.01911518335581179    3    1    7    3
 -0.381707493552022    3    1    7    4
 0.06489363382127425    3    1    7    5
 0.002572288436904758    3    1    7    6
 -0.002696672846287121    3    1    7    7
 -0.00455976476703749    3    1    8    1
 0.0003418145799082839    3    1    8    2
 0.0006561675689469096    3    1    8    3
 -0.01294452682896989    3    1    8    4
 0.00965231001848485    3    1    8    5
 0.2633983864737596    3    1    8    6
 0.2916450611388162    3    1    8    7
 -0.003258054091295953    3    1    8    8
 -0.003197612534950198    3    1    9    1
 0.0004410921244145279    3    1    9    2
 -0.007251188793200705    3    1    9    3
 -0.01256227191649568    3    1    9    4
 -0.01192900862698064    3    1    9    5
 -0.2873569924321406    3    1    9    6
 0.2600948991984803    3    1    9    7
 0.002991392689194319    3    1    9    8
 0.004117815956032361    3    1    9    9
 0.002744233189832634    3    1   10    1
 0.002760704200547238    3    1   10    2
 0.003090176702519071    3    1   10    3
 0.0007801674179453988    3    1   10    4
 -0.002404914470633002    3    1   10    5
 0.01230721323072181    3    1   10    6
 -0.01031290173393967    3    1   10    7
 -0.05969801838860953    3    1   10    8
 -0.3916978422630888    3    1   10    9
 0.005161123691981365    3    1   10   10
 0.0007631727555574841    3    1   11    1
 0.001673646181288583    3    1   11    2
 -0.00213389334213435    3    1   11    3
 0.004499655831389754    3    1   11    4
 0.00407559767906257    3    1   11    5
 0.01173573360916846    3    1   11    6
 0.01239524758601956    3    1   11    7
 0.3799895458369953    3    1   11    8
 -0.05870443410009142    3    1   11    9
 0.01356597908984316    3    1   11   10
 -0.002695515831714796    3    1   11   11
 -0.0002245643904877463    3    1   12    1
 0.003175957091915489    3    1   12    2
 -0.0002481423352663752    3    1   12    3
 -0.001506284103414492    3    1   12    4
 0.002567823662178276    3    1   12    5
 0.004768049502901211    3    1   12    6
 -0.0006478067723074974    3    1   12    7
 0.01399967461985347    3    1   12    8
 0.008751125342374419    3    1   12    9
 -0.1797242006992726    3    1   12   10
 0.3463122310118412    3    1   12   11
 -0.004454182482436946    3    1   12   12
 0.0006744596133473751    3    1   13    1
 2.496855612760251e-05    3    1   13    2
 -0.0001571047373173512    3    1   13    3
 0.002945957260261062    3    1   13    4
 0.001688173555791232    3    1   13    5
 -0.002097284864442245    3    1   13    6
 -0.004095062925029619    3    1   13    7
 0.005443420281541198    3    1   13    8
 -0.01562460543732448    3    1   13    9
 0.3474274695051642    3    1   13   10
 0.1782280947040753    3    1   13   11
 0.01863146420210801    3    1   13   12
 0.02193069330161371    3    1   13   13
 -0.001654577216123561    3    1   14    1
 0.0002137549406635436    3    1   14    2
 0.00062274306778827    3    1   14    3
 0.001257459173855682    3    1   14    4
 -0.0008827886181899357    3    1   14    5
 0.002843229179211208    3    1   14    6
 -0.00257188055929046    3    1   14    7
 -0.006465527699365873    3    1   14    8
 -0.004802942191954165    3    1   14    9
 0.01711926538887849    3    1   14   10
 0.01360679638249032    3    1   14   11
 0.1073535226124901    3    1   14   12
 0.5403656393854768    3    1   14   13
 -0.02698306450928119    3    1   14   14
 0.0008518794735267871    3    2    1    1
 -0.02176283531059882    3    2    2    1
 -0.008389118638355971    3    2    2    2
 0.006302547375610919    3    2    3    1
 0.2761010181259547    3    2    3    2
 0.00786533910371922    3    2    3    3
 0.252019553856502    3    2    4    1
 0.01647062699497841    3    2    4    2
 -0.00753205934929882    3    2    4    3
 0.001430663129714044    3    2    4    4
 0.2964951580125683    3    2    5    1
 -0.004280539807280437    3    2    5    2
 -0.02026412024765792    3    2    5    3
 0.003475474509488423    3    2    5    4
 -0.001498955760885888    3    2    5    5
 0.006658664365432903    3    2    6    1
 0.1399339470745584    3    2    6    2
 0.2390984955571591    3    2    6    3
 -0.01734164981232563    3    2    6    4
 0.01240999142908413    3    2    6    5
 0.00226720611699189    3    2    6    6
 -0.008859837374944914    3    2    7    1
 0.2371538323012347    3    2    7    2
 -0.1379123238496428    3    2    7    3
 -0.005761356727258124    3    2    7    4
 -0.01461074256650942    3    2    7    5
 0.002485222713763204    3    2    7    6
 -0.002289162364392298    3    2    7    7
 0.0003418145799083047    3    2    8    1
 0.0003324154734090849    3    2    8    2
 0.0003442737417085704    3    2    8    3
 0.2156890867656742    3    2    8    4
 0.1741810808742902    3    2    8    5
 -0.008784763947367253    3    2    8    6
 0.01877487780832308    3    2    8    7
 0.0003609039471537253    3    2    8    8
 0.0004410921244145209    3    2    9    1
 -0.002735686357684747    3    2    9    2
 -0.009151610417301038    3    2    9    3
 -0.1731295388611633    3    2    9    4
 0.2124451989988643    3    2    9    5
 -0.01322302088506345    3    2    9    6
 -0.008200068252970934    3    2    9    7
 0.005705202184439274    3    2    9    8
 -0.0003549666395059464    3    2    9    9
 0.002760704200547227    3    2   10    1
 0.002193452987449215    3    2   10    2
 -0.0009808108690477421    3    2   10    3
 0.003850015277611696    3    2   10    4
 -0.0007760702832683482    3    2   10    5
 -0.2132695095680575    3    2   10    6
 -0.179213694878003    3    2   10    7
 0.01272015316315051    3    2   10    8
 -0.0147165265068285    3    2   10    9
 -0.001482230973664796    3    2   10   10
 0.001673646181288591    3    2   11    1
 0.0004130289106590746    3    2   11    2
 0.003583359043093987    3    2   11    3
 0.003548743617492614    3    2   11    4
 0.003420144361943635    3    2   11    5
 0.1758184481209309    3    2   11    6
 -0.2083914988288286    3    2   11    7
 0.002054844367410024    3    2   11    8
 0.01911654629953559    3    2   11    9
 0.001917254002179319    3    2   11   10
 0.001480535512064027    3    2   11   11
 0.003175957091915511    3    2   12    1
 0.001551433717590563    3    2   12    2
 0.0004056692050295988    3    2   12    3
 1.797450750973782e-05    3    2   12    4
 0.001020150817964152    3    2   12    5
 0.004810576500751368    3    2   12    6
 0.0005682152279474655    3    2   12    7
 0.09329993479908508    3    2   12    8
 -0.2591309912752313    3    2   12    9
 -0.01967824512145359    3    2   12   10
 -0.01362394518610333    3    2   12   11
 -0.1051172848090989    3    2   12   12
 2.496855612759558e-05    3    2   13    1
 9.178050414213046e-05    3    2   13    2
 0.001888813286732606    3    2   13    3
 -0.001790783858949832    3    2   13    4
 -0.001931005173654795    3    2   13    5
 0.0001797259443911872    3    2   13    6
 -0.002427045157258251    3    2   13    7
 -0.2594339228964334    3    2   13    8
 -0.09258021037307176    3    2   13    9
 0.007108403899918056    3    2   13   10
 0.01371646742122725    3    2   13   11
 -0.2540861294498358    3    2   13   12
 0.105740695351927    3    2   13   13
 0.0002137549406635471    3    2   14    1
 -0.002795514029420866    3    2   14    2
 3.599786880765024e-05    3    2   14    3
 0.001423582879140416    3    2   14    4
 -0.001036448194412704    3    2   14    5
 -0.002242536922391557    3    2   14    6
 -0.0003138791792726484    3    2   14    7
 0.0001082182272346879    3    2   14    8
 -0.001276176735679316    3    2   14    9
 0.2469040295380902    3    2   14   10
 -0.3023569548153006    3    2   14   11
 0.02793071242215937    3    2   14   12
 0.006641282794459621    3    2   14   13
 -0.0008655034491943242    3    2   14   14
 0.552054155813969    3    3    1    1
 0.006302547375610899    3    3    2    1
 0.2761010181259547    3    3    2    2
 0.004621314530244516    3    3    3    1
 0.00786533910371922    3    3    3    2
 0.8301341871797039    3    3    3    3
 0.3073927600931412    3    3    4    1
 -0.007532059349298806    3    3    4    2
 -0.005269632814361963    3    3    4    3
 0.5561580373121963    3    3    4    4
 -0.2418466107447644    3    3    5    1
 -0.02026412024765789    3    3    5    2
 0.007955407368701862    3    3    5    3
 0.0006518636097751392    3    3    5    4
 0.550371609041385    3    3    5    5
 -0.01317150178304077    3    3    6    1
 0.2390984955571591    3    3    6    2
 -0.1302852637913397    3    3    6    3
 0.0007273872220712463    3    3    6    4
 -0.007998470996165298    3    3    6    5
 0.5568871333036491    3    3    6    6
 -0.01911518335581179    3    3    7    1
 -0.1379123238496428    3    3    7    2
 -0.242948863010854    3    3    7    3
 0.01082814835856258    3    3    7    4
 -0.00456512108105845    3    3    7    5
 0.003593125269005015    3    3    7    6
 0.5492667442720172    3    3    7    7
 0.0006561675689468784    3    3    8    1
 0.0003442737417085721    3    3    8    2
 -0.01681537434283002    3    3    8    3
 -0.1676175852628265    3    3    8    4
 0.2207917852468566    3    3    8    5
 -0.006288854423850531    3    3    8    6
 -0.006734362674916172    3    3    8    7
 0.5496336924413201    3    3    8    8
 -0.007251188793200705    3    3    9    1
 -0.009151610417301059    3    3    9    2
 -0.006264738445488305    3    3    9    3
 -0.2175268835334523    3    3    9    4
 -0.1686659133435745    3    3    9    5
 0.005773066459410212    3    3    9    6
 -0.004758626033740443    3    3    9    7
 0.002779039310520218    3    3    9    8
 0.5565366025504543    3    3    9    9
 0.003090176702519112    3    3   10    1
 -0.0009808108690477491    3    3   10    2
 0.005423342575205548    3    3   10    3
 0.01190780367693567    3    3   10    4
 0.00537759307505541    3    3   10    5
 0.1720508697743102    3    3   10    6
 -0.2175682598101502    3    3   10    7
 0.005432680064917136    3    3   10    8
 0.002207581868022529    3    3   10    9
 0.5592059296107755    3    3   10   10
 -0.00213389334213435    3    3   11    1
 0.003583359043093983    3    3   11    2
 0.001797233280292989    3    3   11    3
 -0.005658290248738835    3    3   11    4
 0.01078328035309458    3    3   11    5
 0.215961604667809    3    3   11    6
 0.1709121888342172    3    3   11    7
 -0.01235731603348562    3    3   11    8
 -0.004751904497574455    3    3   11    9
 -0.0005911054448498078    3    3   11   10
 0.5468579122684976    3    3   11   11
 -0.0002481423352664039    3    3   12    1
 0.0004056692050296196    3    3   12    2
 -0.001849062092712997    3    3   12    3
 0.003000957954301268    3    3   12    4
 0.005573460786826252    3    3   12    5
 0.005559313400499066    3    3   12    6
 0.01138434441678147    3    3   12    7
 0.259851249922381    3    3   12    8
 0.08676521864189463    3    3   12    9
 0.02044135054318012    3    3   12   10
 -0.01026464885401295    3    3   12   11
 0.2984994191029057    3    3   12   12
 -0.0001571047373173373    3    3   13    1
 0.001888813286732592    3    3   13    2
 0.00165256401136446    3    3   13    3
 0.002327942245266751    3    3   13    4
 -0.001530852528464924    3    3   13    5
 0.009404208361840465    3    3   13    6
 -0.006489816328067333    3    3   13    7
 0.08032368813275212    3    3   13    8
 -0.2675722034600914    3    3   13    9
 0.008884111156241936    3    3   13   10
 0.01409890092354732    3    3   13   11
 0.1052918008874991    3    3   13   12
 0.8061322114736412    3    3   13   13
 0.0006227430677882978    3    3   14    1
 3.599786880765718e-05    3    3   14    2
 -0.0009498296930866568    3    3   14    3
 0.002059749439069433    3    3   14    4
 0.001055304634144286    3    3   14    5
 -0.001240379070793142    3    3   14    6
 -0.005816799514041279    3    3   14    7
 0.002214000332563068    3    3   14    8
 -0.01329135358877662    3    3   14    9
 0.3067882914857175    3    3   14   10
 0.2403194708472674    3    3   14   11
 0.0007503847584088442    3    3   14   12
 -0.02886826569658368    3    3   14   13
 0.5547981775035322    3    3   14   14
 -0.001067072252982408    4    1    1    1
 0.01712810621839095    4    1    2    1
 -0.3080393059606036    4    1    2    2
 0.0141915085740956    4    1    3    1
 0.252019553856502    4    1    3    2
 0.3073927600931412    4    1    3    3
 0.5574734221007898    4    1    4    1
 -0.005279557669167226    4    1    4    2
 -0.001841205870215398    4    1    4    3
 -0.002191016955481212    4    1    4    4
 0.0005560637195918382    4    1    5    1
 -0.006028914077384117    4    1    5    2
 0.008096821125852796    4    1    5    3
 0.003999292304143157    4    1    5    4
 0.002715441280006379    4    1    5    5
 -0.005466612045236414    4    1    6    1
 0.3883281487538522    4    1    6    2
 0.06618514272268675    4    1    6    3
 0.006178347345602866    4    1    6    4
 0.00197164351679913    4    1    6    5
 0.004000457910309802    4    1    6    6
 -0.02117729943014161    4    1    7    1
 0.06489931748913733    4    1    7    2
 -0.381707493552022    4    1    7    3
 0.008177842980056735    4    1    7    4
 0.003810891472129204    4    1    7    5
 0.00605530155310682    4    1    7    6
 -0.003850511741964782    4    1    7    7
 0.001787234942638716    4    1    8    1
 -0.0004871036567636391    4    1    8    2
 -0.01294452682896991    4    1    8    3
 0.007430707236053848    4    1    8    4
 0.3928963467130117    4    1    8    5
 0.002389078068131257    4    1    8    6
 -0.002889702438062684    4    1    8    7
 -0.005657018612942157    4    1    8    8
 0.001567242575899186    4    1    9    1
 -0.006697064857289575    4    1    9    2
 -0.01256227191649567    4    1    9    3
 -0.3909877236593667    4    1    9    4
 0.007008155303111033    4    1    9    5
 0.006686975875344336    4    1    9    6
 0.005229053074794848    4    1    9    7
 0.008385198115191925    4    1    9    8
 0.005642506714743201    4    1    9    9
 0.004830831362220386    4    1   10    1
 0.0012471879452862    4    1   10    2
 0.0007801674179453849    4    1   10    3
 0.01147960790159332    4    1   10    4
 0.002900333779182503    4    1   10    5
 -0.0005021795001269175    4    1   10    6
 -0.3965207770032292    4    1   10    7
 -0.003504318089849214    4    1   10    8
 -0.009221615849618947    4    1   10    9
 -0.0007137777631562314    4    1   10   10
 -0.001351864781476322    4    1   11    1
 -0.004354833746480483    4    1   11    2
 0.004499655831389775    4    1   11    3
 -0.0009314147777955903    4    1   11    4
 0.009224521566539209    4    1   11    5
 0.3889025259189997    4    1   11    6
 -0.0009325967439921187    4    1   11    7
 -0.01150361221612818    4    1   11    8
 -0.009720551877635077    4    1   11    9
 0.0002559728431396173    4    1   11   10
 0.0004909555454159754    4    1   11   11
 0.0008741926959273333    4    1   12    1
 0.0007128622922712474    4    1   12    2
 -0.001506284103414507    4    1   12    3
 0.002052388988703189    4    1   12    4
 -0.001446957510747079    4    1   12    5
 0.008271593561190277    4    1   12    6
 0.007910221919980512    4    1   12    7
 0.3703487285752542    4    1   12    8
 -0.1390208651769746    4    1   12    9
 0.0183306840789689    4    1   12   10
 -0.006897342704688831    4    1   12   11
 -0.370191394661259    4    1   12   12
 0.00256852203444137    4    1   13    1
 0.002451803422653831    4    1   13    2
 0.002945957260261048    4    1   13    3
 -0.003085932346547526    4    1   13    4
 -0.0008339484321530713    4    1   13    5
 0.005750377621076726    4    1   13    6