 &FCI NORB=  16,NELEC= 8,MS2=0,
  ORBSYM=1,1,1,1,1,1,1,1,1,1,1,1,1,1,1,1
  ISYM=1,
 &END
 0.5017120889879831    1    1    1    1
 0.5234216087129259    1    1    2    2
 -6.4484387828391e-05    1    1    3    2
 0.5083422261622536    1    1    3    3
 0.0002598584696419711    1    1    4    2
 4.109987962887252e-05    1    1    4    3
 0.5030845348170299    1    1    4    4
 0.001071910385892477    1    1    5    2
 -0.0001971285105996229    1    1    5    3
 0.000167627917451077    1    1    5    4
 0.4687410472653352    1    1    5    5
 0.001028968502688531    1    1    6    1
 0.5225854975134919    1    1    6    6
 0.01278450287751953    1    1    7    1
 -4.692569694040227e-05    1    1    7    6
 0.5218409586165698    1    1    7    7
 -0.0008285058927903009    1    1    8    1
 -2.866483605770065e-06    1    1    8    6
 1.298949762196678e-05    1    1    8    7
 0.5197620674850705    1    1    8    8
 0.002515020131613234    1    1    9    1
 -1.090543907320256e-05    1    1    9    6
 0.0001025408955276363    1    1    9    7
 2.646802033873913e-06    1    1    9    8
 0.4938779278410296    1    1    9    9
 -0.004757644472136311    1    1   10    1
 2.178114847822626e-05    1    1   10    6
 -0.0002023023799429709    1    1   10    7
 -5.352168301931554e-06    1    1   10    8
 -4.312882037491028e-05    1    1   10    9
 0.4836883661873088    1    1   10   10
 -0.02471273107710861    1    1   11    1
 -0.0001326931063290214    1    1   11    6
 0.0006908796689665425    1    1   11    7
 4.658918341439355e-05    1    1   11    8
 0.0001516484430207558    1    1   11    9
 -0.0003040354048482371    1    1   11   10
 0.458419292114609    1    1   11   11
 0.003762352001211746    1    1   12    2
 -0.001886445822475543    1    1   12    3
 -0.0003261449083842155    1    1   12    4
 0.01404972966786578    1    1   12    5
 0.5225826188311392    1    1   12   12
 -0.001802089260670034    1    1   13    2
 -0.01380226909098463    1    1   13    3
 -0.001171544891413086    1    1   13    4
 -0.003412224787825921    1    1   13    5
 -1.296783479731375e-05    1    1   13   12
 0.5075357882641215    1    1   13   13
 0.0004164937833481836    1    1   14    2
 0.001333282732086195    1    1   14    3
 0.01733856450731718    1    1   14    4
 -0.007443058675059334    1    1   14    5
 -5.269551547981872e-05    1    1   14   12
 -7.573733319408971e-06    1    1   14   13
 0.5016749127968233    1    1   14   14
 0.01303304381967387    1    1   15    2
 -0.003122031014922123    1    1   15    3
 0.00680361101590991    1    1   15    4
 0.02652984285580096    1    1   15    5
 0.0002075274825585026    1    1   15   12
 -3.83750886619183e-05    1    1   15   13
 -3.591986563361918e-05    1    1   15   14
 0.464617263150366    1    1   15   15
 0.0001643998977165703    1    1   16    1
 0.001787951033148328    1    1   16    6
 -0.01267604825106229    1    1   16    7
 -0.000540702593234674    1    1   16    8
 -0.002725881329010693    1    1   16    9
 0.005407726222058339    1    1   16   10
 -0.02663524171399193    1    1   16   11
 0.4981138012539316    1    1   16   16
 0.5234216087129259    2    1    2    1
 -6.448438782836671e-05    2    1    3    1
 0.0002598584696419728    2    1    4    1
 0.001071910385892483    2    1    5    1
 0.03203416881471245    2    1    6    2
 0.3758856835868025    2    1    6    3
 0.1984411534384563    2    1    6    4
 -0.02003733761028189    2    1    6    5
 0.5243563197357781    2    1    7    2
 -0.05732179886144709    2    1    7    3
 0.05461583019658674    2    1    7    4
 0.2860509644727455    2    1    7    5
 0.03120933532293176    2    1    8    2
 0.1513981887678071    2    1    8    3
 -0.3753372023674477    2    1    8    4
 0.03167781133120879    2    1    8    5
 0.05033545026790177    2    1    9    2
 0.1428428968507792    2    1    9    3
 -0.02640506776197118    2    1    9    4
 -0.004528936138739965    2    1    9    5
 -0.04940500407093835    2    1   10    2
 -0.002019291779877291    2    1   10    3
 0.1184552624620413    2    1   10    4
 -0.02915335013391811    2    1   10    5
 -0.1812904276588771    2    1   11    2
 -0.001844943514284249    2    1   11    3
 0.01416898860513194    2    1   11    4
 0.1136146523779841    2    1   11    5
 0.003762352001211772    2    1   12    1
 -0.06529866980479676    2    1   12    6
 0.5201349312619635    2    1   12    7
 -0.04625301813585495    2    1   12    8
 0.05555137515593943    2    1   12    9
 -0.05795948462226021    2    1   12   10
 0.1978194822425697    2    1   12   11
 -0.001802089260670013    2    1   13    1
 -0.3597978941449048    2    1   13    6
 -0.08339849669294591    2    1   13    7
 -0.1480828338729777    2    1   13    8
 0.1465725707160717    2    1   13    9
 -0.002420523301538271    2    1   13   10
 0.0009754628685082868    2    1   13   11
 0.0004164937833481749    2    1   14    1
 0.1961411199255431    2    1   14    6
 -0.05131434048615504    2    1   14    7
 -0.3605208170829178    2    1   14    8
 0.0258546266532454    2    1   14    9
 -0.1230025642708405    2    1   14   10
 0.01140412822029361    2    1   14   11
 0.01303304381967388    2    1   15    1
 0.0009132438968521262    2    1   15    6
 0.2603873237286992    2    1   15    7
 -0.03194256811606574    2    1   15    8
 -0.005063581567549377    2    1   15    9
 -0.02584872067053932    2    1   15   10
 -0.1175199626540146    2    1   15   11
 -0.004128226110286222    2    1   16    2
 0.001809835800370606    2    1   16    3
 0.0003845558876049825    2    1   16    4
 -0.01392815916597915    2    1   16    5
 -0.4986574374725913    2    1   16   12
 0.001992330146973219    2    1   16   13
 0.005391529074885567    2    1   16   14
 -0.007602624694250892    2    1   16   15
 0.5234216087129259    2    2    1    1
 1.113119616250785    2    2    2    2
 -0.01000944019258688    2    2    3    2
 0.3620981246026942    2    2    3    3
 0.02413455263978594    2    2    4    2
 0.01921130394761749    2    2    4    3
 0.3829864814098413    2    2    4    4
 0.2456365909872696    2    2    5    2
 -0.03822143163301525    2    2    5    3
 -0.003876557864871471    2    2    5    4
 0.1892420421109343    2    2    5    5
 0.03203416881471245    2    2    6    1
 0.6776614441444944    2    2    6    6
 0.5243563197357781    2    2    7    1
 -0.02487975722516098    2    2    7    6
 1.337322280099117    2    2    7    7
 0.03120933532293172    2    2    8    1
 -0.06077113795394982    2    2    8    6
 -0.009875329718634902    2    2    8    7
 0.617377731337083    2    2    8    8
 0.05033545026790177    2    2    9    1
 -0.002096283510901606    2    2    9    6
 0.05398498609141596    2    2    9    7
 -0.0008792253555833652    2    2    9    8
 0.09849254945514108    2    2    9    9
 -0.04940500407093836    2    2   10    1
 0.004211568687380382    2    2   10    6
 -0.108617557127803    2    2   10    7
 0.001863751636057588    2    2   10    8
 -0.02451442625120225    2    2   10    9
 0.07429473661498123    2    2   10   10
 -0.1812904276588771    2    2   11    1
 -0.03168382289160065    2    2   11    6
 0.01869976432303553    2    2   11    7
 -0.03380140766401664    2    2   11    8
 0.003360398045564113    2    2   11    9
 -0.004746131239028104    2    2   11   10
 0.1954192493014977    2    2   11   11
 0.4502778740631992    2    2   12    2
 -0.1020064063106948    2    2   12    3
 0.05208981069990825    2    2   12    4
 0.33642174142474    2    2   12    5
 1.080309815871818    2    2   12   12
 -0.1000073841821028    2    2   13    2
 -0.2503640671996648    2    2   13    3
 -0.0468279021352399    2    2   13    4
 -0.04193835421079561    2    2   13    5
 -0.009703284296115569    2    2   13   12
 0.3467746495982342    2    2   13   13
 -0.05058084006942275    2    2   14    2
 0.04965617254713189    2    2   14    3
 0.2982936660929035    2    2   14    4
 -0.04762728988050846    2    2   14    5
 -0.02606151822013669    2    2   14   12
 -0.01578741879093389    2    2   14   13
 0.3617164044272891    2    2   14   14
 0.3087058860492199    2    2   15    2
 -0.03816031651272338    2    2   15    3
 0.04097896188026798    2    2   15    4
 0.1132334402770739    2    2   15    5
 0.2216266452381943    2    2   15   12
 -0.03482329966438242    2    2   15   13
 0.0001557530439096986    2    2   15   14
 0.1637528657284023    2    2   15   15
 -0.004128226110286229    2    2   16    1
 0.06296012493858996    2    2   16    6
 -0.5016637931554603    2    2   16    7
 0.04020660337012978    2    2   16    8
 -0.05211193943531107    2    2   16    9
 0.05442955492260299    2    2   16   10
 -0.1866523499223806    2    2   16   11
 0.476010400334759    2    2   16   16
 -6.448438782838059e-05    3    1    2    1
 0.5083422261622536    3    1    3    1
 4.109987962885864e-05    3    1    4    1
 -0.0001971285105996229    3    1    5    1
 0.3758856835868025    3    1    6    2
 0.03598212546674654    3    1    6    3
 0.284210187410608    3    1    6    4
 -0.08959597356756414    3    1    6    5
 -0.05732179886144709    3    1    7    2
 -0.2302267832194609    3    1    7    3
 0.01868071930849313    3    1    7    4
 -0.008257471207303864    3    1    7    5
 0.1513981887678071    3    1    8    2
 -0.3128395156627702    3    1    8    3
 0.09994381542585912    3    1    8    4
 -0.05002086012235361    3    1    8    5
 0.1428428968507792    3    1    9    2
 0.06389791606612441    3    1    9    3
 -0.2966878773297427    3    1    9    4
 -0.358014548220809    3    1    9    5
 -0.002019291779877291    3    1   10    2
 -0.2445888703220504    3    1   10    3
 -0.07064848120683798    3    1   10    4
 -0.02844683607089288    3    1   10    5
 -0.001844943514284249    3    1   11    2
 -0.1981401203248379    3    1   11    3
 -3.830358147492415e-05    3    1   11    4
 -0.03054726592634902    3    1   11    5
 -0.00188644582247554    3    1   12    1
 -0.3697592482761267    3    1   12    6
 -0.08540510704532957    3    1   12    7
 -0.1491022020989164    3    1   12    8
 0.160209066373903    3    1   12    9
 -0.001815901588583534    3    1   12   10
 0.002603139109737689    3    1   12   11
 -0.01380226909098464    3    1   13    1
 -0.01791636899198752    3    1   13    6
 -0.2145960414439963    3    1   13    7
 0.3114833884902    3    1   13    8
 0.06656761773793884    3    1   13    9
 -0.2607407636295224    3    1   13   10
 0.2185817475722248    3    1   13   11
 0.001333282732086202    3    1   14    1
 0.277975395578645    3    1   14    6
 0.003454441107194978    3    1   14    7
 0.09719227297704944    3    1   14    8
 0.2979280216988118    3    1   14    9
 0.07424767956478213    3    1   14   10
 -0.001379529110028679    3    1   14   11
 -0.003122031014922144    3    1   15    1
 0.07345893415683769    3    1   15    6
 -0.0009772287927342221    3    1   15    7
 0.04088047605781692    3    1   15    8
 -0.3358294569763761    3    1   15    9
 -0.02740652427452424    3    1   15   10
 0.03205886763712756    3    1   15   11
 0.001809835800370616    3    1   16    2
 0.01323360737133053    3    1   16    3
 0.001257960587823952    3    1   16    4
 0.003371468772483774    3    1   16    5
 -0.002027696271047447    3    1   16   12
 -0.4985129476828505    3    1   16   13
 0.002273208933642759    3    1   16   14
 0.001924487142407429    3    1   16   15
 -6.448438782840141e-05    3    2    1    1
 -0.01000944019258686    3    2    2    2
 0.3620981246026942    3    2    3    2
 -0.01969125388250095    3    2    3    3
 0.01921130394761749    3    2    4    2
 0.1459639979605148    3    2    4    3
 0.03626440881485916    3    2    4    4
 -0.03822143163301526    3    2    5    2
 -0.1814333421835941    3    2    5    3
 0.01245641996877994    3    2    5    4
 -0.006632328882340627    3    2    5    5
 0.3758856835868025    3    2    6    1
 0.3212505412858059    3    2    6    6
 -0.0573217988614471    3    2    7    1
 -0.002164494266970699    3    2    7    6
 -0.08311738540139103    3    2    7    7
 0.1513981887678071    3    2    8    1
 -0.3359677056444864    3    2    8    6
 -0.01809605381327492    3    2    8    7
 -0.3022572717974192    3    2    8    8
 0.1428428968507792    3    2    9    1
 0.00137557563744169    3    2    9    6
 -0.1456954234220331    3    2    9    7
 0.0004620664512898733    3    2    9    8
 0.1074932333455571    3    2    9    9
 -0.002019291779877294    3    2   10    1
 0.005774302628230775    3    2   10    6
 0.02084767675386746    3    2   10    7
 0.002548645785651287    3    2   10    8
 -0.1403140920379582    3    2   10    9
 -0.03029967860034573    3    2   10   10
 -0.001844943514284242    3    2   11    1
 -0.2927483590881127    3    2   11    6
 -0.01305833328520425    3    2   11    7
 -0.1231852257516568    3    2   11    8
 0.007547393339157459    3    2   11    9
 8.403169502998564e-05    3    2   11   10
 -0.01298909897385176    3    2   11   11
 -0.1020064063106949    3    2   12    2
 -0.2536697114104476    3    2   12    3
 -0.05061498680738588    3    2   12    4
 -0.04248077502670815    3    2   12    5
 -0.004516200816037502    3    2   12   12
 -0.2503640671996648    3    2   13    2
 0.1209484548265072    3    2   13    3
 -0.3148443183231417    3    2   13    4
 -0.02891999143514679    3    2   13    5
 0.3582769997074962    3    2   13   12
 -0.02246339923454128    3    2   13   13
 0.04965617254713189    3    2   14    2
 0.313744698055932    3    2   14    3
 0.0379470769896517    3    2   14    4
 -0.01039176369661742    3    2   14    5
 -0.01806207499778998    3    2   14   12
 -0.1315728671642688    3    2   14   13
 0.03328038934277287    3    2   14   14
 -0.03816031651272336    3    2   15    2
 -0.03229628616242808    3    2   15    3
 0.01051010118784316    3    2   15    4
 0.01185047098850231    3    2   15    5
 -0.03630916500640954    3    2   15   12
 -0.1615284188207765    3    2   15   13
 -0.01047536104011227    3    2   15   14
 -0.006232175149624805    3    2   15   15
 0.001809835800370602    3    2   16    1
 0.3543129027182804    3    2   16    6
 0.08074614660800532    3    2   16    7
 0.1437784882102264    3    2   16    8
 -0.144181333238213    3    2   16    9
 0.00194469292429085    3    2   16   10
 -0.002155229937441847    3    2   16   11
 -1.58554705267655e-05    3    2   16   16
 0.5083422261622536    3    3    1    1
 0.3620981246026942    3    3    2    2
 -0.0196912538825009    3    3    3    2
 1.009884038835834    3    3    3    3
 0.1459639979605149    3    3    4    2
 -0.05151948460612556    3    3    4    3
 0.3630130087913491    3    3    4    4
 -0.1814333421835941    3    3    5    2
 0.008791104740945369    3    3    5    3
 0.1605854642200282    3    3    5    4
 0.2835333899151699    3    3    5    5
 0.03598212546674654    3    3    6    1
 0.8630617073477904    3    3    6    6
 -0.2302267832194608    3    3    7    1
 0.0237173526808878    3    3    7    6
 0.221803956413366    3    3    7    7
 -0.3128395156627702    3    3    8    1
 0.3042807307672036    3    3    8    6
 0.02257719514343713    3    3    8    7
 0.506417461533014    3    3    8    8
 0.06389791606612444    3    3    9    1
 0.002907421363826369    3    3    9    6
 -0.1031690873716914    3    3    9    7
 0.003815702937785972    3    3    9    8
 0.9556972694277387    3    3    9    9
 -0.2445888703220504    3    3   10    1
 -0.006363630157733485    3    3   10    6
 0.226458554649413    3    3   10    7
 -0.008352090216897619    3    3   10    8
 0.06116950245052739    3    3   10    9
 0.2840127290115266    3    3   10   10
 -0.1981401203248379    3    3   11    1
 -0.01414723012120791    3    3   11    6
 -0.002878402691098985    3    3   11    7
 0.2536077185656013    3    3   11    8
 0.003442511687104666    3    3   11    9
 -0.01730535464652389    3    3   11   10
 0.1709880623013681    3    3   11   11
 -0.2536697114104476    3    3   12    2
 0.1225292451615481    3    3   12    3
 -0.3288100558044098    3    3   12    4
 -0.0371111190606762    3    3   12    5
 0.3703922244464562    3    3   12   12
 0.1209484548265072    3    3   13    2
 -0.04670977936458942    3    3   13    3
 0.04057961882423027    3    3   13    4
 -0.0709650740075157    3    3   13    5
 -0.01581566467157865    3    3   13   12
 1.008153495281612    3    3   13   13
 0.313744698055932    3    3   14    2
 -0.03930121121364435    3    3   14    3
 -0.01983616583960583    3    3   14    4
 -0.2773215397467088    3    3   14    5
 -0.1287785780082827    3    3   14   12
 0.04456882036078511    3    3   14   13
 0.3572046247198272    3    3   14   14
 -0.03229628616242808    3    3   15    2
 -0.06261468058552644    3    3   15    3
 0.2535309806768504    3    3   15    4
 0.2264084100242795    3    3   15    5
 -0.1722139345762166    3    3   15   12
 0.005245230379022719    3    3   15   13
 -0.1601758198042787    3    3   15   14
 0.2457210934070614    3    3   15   15
 0.01323360737133054    3    3   16    1
 0.02057391596590805    3    3   16    6
 0.2112769570532571    3    3   16    7
 -0.3045641194817727    3    3   16    8
 -0.06606974264474863    3    3   16    9
 0.2564971184530515    3    3   16   10
 -0.214459527519765    3    3   16   11
 0.4896765878029445    3    3   16   16
 0.0002598584696419642    4    1    2    1
 4.109987962884476e-05    4    1    3    1
 0.5030845348170299    4    1    4    1
 0.0001676279174510666    4    1    5    1
 0.1984411534384563    4    1    6    2
 0.2842101874106079    4    1    6    3
 -0.0611264059199637    4    1    6    4
 -0.01634020064538321    4    1    6    5
 0.05461583019658674    4    1    7    2
 0.01868071930849314    4    1    7    3
 -0.1769566372320238    4    1    7    4
 -0.02514661201600056    4    1    7    5
 -0.3753372023674477    4    1    8    2
 0.09994381542585912    4    1    8    3
 0.2878814393819769    4    1    8    4
 0.04564148437492435    4    1    8    5
 -0.02640506776197118    4    1    9    2
 -0.2966878773297427    4    1    9    3
 -0.07905778703979793    4    1    9    4
 0.02316367986507735    4    1    9    5
 0.1184552624620413    4    1   10    2
 -0.07064848120683795    4    1   10    3
 0.2214558011848628    4    1   10    4
 -0.3953893418442048    4    1   10    5
 0.01416898860513192    4    1   11    2
 -3.830358147492783e-05    4    1   11    3
 -0.1963492733427337    4    1   11    4
 0.05795041192543442    4    1   11    5
 -0.0003261449083842103    4    1   12    1
 -0.2038887274065241    4    1   12    6
 0.05154117823395891    4    1   12    7
 0.3796013121458017    4    1   12    8
 -0.0289622047002107    4    1   12    9
 0.1320009383233818    4    1   12   10
 -0.01611291254485471    4    1   12   11
 -0.001171544891413086    4    1   13    1
 -0.2761030961496012    4    1   13    6
 -0.001131469167706789    4    1   13    7
 -0.09829500248627385    4    1   13    8
 -0.3044620898809912    4    1   13    9
 -0.07715411954850492    4    1   13   10
 -0.0006963970220033211    4    1   13   11
 0.01733856450731716    4    1   14    1
 -0.06639792947674042    4    1   14    6
 0.1663069478344211    4    1   14    7
 0.2709733102745749    4    1   14    8
 0.08031922763275218    4    1   14    9
 -0.2281945423419283    4    1   14   10
 -0.2232810031503382    4    1   14   11
 0.006803611015909913    4    1   15    1
 0.0140762700945237    4    1   15    6
 -0.02378787473501628    4    1   15    7
 -0.0354668057764511    4    1   15    8
 0.02168482565337672    4    1   15    9
 -0.3753971250286982    4    1   15   10
 -0.06464494828505397    4    1   15   11
 0.0003845558876049912    4    1   16    2
 0.001257960587823959    4    1   16    3
 0.01685995198269105    4    1   16    4
 -0.007388533141470598    4    1   16    5
 0.005548116147345843    4    1   16   12
 0.002254569212215458    4    1   16   13
 0.4983729469242055    4    1   16   14
 -0.002290931368308307    4    1   16   15
 0.0002598584696419711    4    2    1    1
 0.02413455263978591    4    2    2    2
 0.01921130394761749    4    2    3    2
 0.1459639979605148    4    2    3    3
 0.3829864814098413    4    2    4    2
 0.03626440881485915    4    2    4    3
 -0.1972818801000347    4    2    4    4
 -0.003876557864871467    4    2    5    2
 0.01245641996877994    4    2    5    3
 -0.138078305599334    4    2    5    4
 0.02740249861269927    4    2    5    5
 0.1984411534384563    4    2    6    1
 0.3835950130813863    4    2    6    6
 0.05461583019658674    4    2    7    1
 0.007331759504933973    4    2    7    6
 0.04132974375022146    4    2    7    7
 -0.3753372023674477    4    2    8    1
 0.2803766527724539    4    2    8    6
 0.01685318124142491    4    2    8    7
 -0.3910804883714518    4    2    8    8
 -0.02640506776197117    4    2    9    1
 -0.002545296497763626    4    2    9    6
 0.03451819452720974    4    2    9    7
 0.002757791630978084    4    2    9    8
 -0.1738465172283778    4    2    9    9
 0.1184552624620413    4    2   10    1
 0.006195745342043205    4    2   10    6
 -0.09358565718390809    4    2   10    7
 -0.005832797763182938    4    2   10    8
 -0.03397501137776652    4    2   10    9
 0.1314229239878267    4    2   10   10
 0.01416898860513193    4    2   11    1
 -0.1574369731685819    4    2   11    6
 -0.0008274459052030562    4    2   11    7
 0.306676188254302    4    2   11    8
 -0.001647215937263426    4    2   11    9
 0.00914159655934558    4    2   11   10
 0.008262683426824478    4    2   11   11
 0.05208981069990827    4    2   12    2
 -0.05061498680738588    4    2   12    3
 -0.3127668990727142    4    2   12    4
 0.04753711730036995    4    2   12    5
 0.01199498219600174    4    2   12   12
 -0.04682790213523989    4    2   13    2
 -0.3148443183231417    4    2   13    3
 -0.03662352734777952    4    2   13    4
 0.0112480802312919    4    2   13    5
 0.01471323626256082    4    2   13   12
 0.1283147174302675    4    2   13   13
 0.2982936660929035    4    2   14    2
 0.03794707698965172    4    2   14    3
 -0.2705991332968979    4    2   14    4
 0.06791228052243975    4    2   14    5
 -0.3803377696283464    4    2   14   12
 -0.03164877570086915    4    2   14   13
 -0.1673375638022657    4    2   14   14
 0.04097896188026798    4    2   15    2
 0.01051010118784316    4    2   15    3
 -0.0666534554761182    4    2   15    4
 -0.009415875013017095    4    2   15    5
 -0.0006347611546289348    4    2   15   12
 0.0123915172158715    4    2   15   13
 0.1271986594452883    4    2   15   14
 0.02680869506302927    4    2   15   15
 0.0003845558876049912    4    2   16    1
 0.1924199555107473    4    2   16    6
 -0.04707066253788248    4    2   16    7
 -0.35891568430014    4    2   16    8
 0.02697523675575788    4    2   16    9
 -0.1227787078258452    4    2   16   10
 0.01401389565111788    4    2   16   11
 5.678288392778168e-05    4    2   16   16
 4.109987962883088e-05    4    3    1    1
 0.01921130394761749    4    3    2    2
 0.1459639979605149    4    3    3    2
 -0.05151948460612557    4    3    3    3
 0.03626440881485916    4    3    4    2
 0.3630130087913491    4    3    4    3
 0.03087351935660852    4    3    4    4
 0.01245641996877994    4    3    5    2
 0.1605854642200282    4    3    5    3
 0.04285293253750574    4    3    5    4
 0.001456739391212568    4    3    5    5
 0.2842101874106079    4    3    6    1
 0.2507032768685546    4    3    6    6
 0.01868071930849314    4    3    7    1
 -0.002710491825368421    4    3    7    6
 -0.02744820409348006    4    3    7    7
 0.09994381542585914    4    3    8    1
 -0.24096813393178    4    3    8    6
 -0.01314581361729592    4    3    8    7
 -0.2381758617967904    4    3    8    8
 -0.2966878773297426    4    3    9    1
 -0.01012080700115154    4    3    9    6
 0.2757367969543802    4    3    9    7
 -0.00413723390179331    4    3    9    8
 -0.02890523135087472    4    3    9    9
 -0.07064848120683798    4    3   10    1
 0.003559970897568463    4    3   10    6
 0.04511860943291778    4    3   10    7
 0.001322245634921631    4    3   10    8
 0.3294906209213306    4    3   10    9
 0.05201246821678235    4    3   10   10
 -3.830358147492133e-05    4    3   11    1
 -0.2229641562838782    4    3   11    6
 -0.007936583256358987    4    3   11    7
 -0.081814905315366    4    3   11    8
 -0.01602142737152959    4    3   11    9
 -0.004939677098764512    4    3   11   10
 -0.008232880254552292    4    3   11   11
 -0.05061498680738588    4    3   12    2
 -0.3288100558044098    4    3   12    3
 -0.03793197033392942    4    3   12    4
 0.01191606275290508    4    3   12    5
 0.0169233155607408    4    3   12   12
 -0.3148443183231417    4    3   13    2
 0.04057961882423028    4    3   13    3
 0.02507554069820665    4    3   13    4
 0.2821159651352745    4    3   13    5
 0.1252517832329094    4    3   13   12
 -0.05092805314479699    4    3   13   13
 0.03794707698965172    4    3   14    2
 -0.01983616583960584    4    3   14    3
 0.00703677068116686    4    3   14    4
 -0.04722869515832034    4    3   14    5
 -0.03426330136547208    4    3   14   12
 -0.3607612643550701    4    3   14   13
 0.03276125594540291    4    3   14   14
 0.01051010118784316    4    3   15    2
 0.2535309806768504    4    3   15    3
 0.04180193101349813    4    3   15    4
 0.01206548452883079    4    3   15    5
 0.01220228783101221    4    3   15   12
 0.1648284073845683    4    3   15   13
 -0.04367504383689114    4    3   15   14
 0.001221403549340076    4    3   15   15
 0.001257960587823945    4    3   16    1
 0.2715718156964304    4    3   16    6
 0.001552783560062138    4    3   16    7
 0.09608262409522118    4    3   16    8
 0.2998080036015429    4    3   16    9
 0.07275783731097824    4    3   16   10
 -0.0005240856793044719    4    3   16   11
 5.332530731788632e-06    4    3   16   16
 0.5030845348170299    4    4    1    1
 0.3829864814098413    4    4    2    2
 0.03626440881485916    4    4    3    2
 0.3630130087913491    4    4    3    3
 -0.1972818801000347    4    4    4    2
 0.03087351935660852    4    4    4    3
 0.9243858938609357    4    4    4    4
 -0.138078305599334    4    4    5    2
 0.04285293253750574    4    4    5    3
 -0.1736395068549608    4    4    5    4
 0.3373056769516601    4    4    5    5
 -0.06112640591996374    4    4    6    1
 0.4721963142019646    4    4    6    6
 -0.1769566372320238    4    4    7    1
 0.01089742560264018    4    4    7    6
 0.135110636288185    4    4    7    7
 0.2878814393819769    4    4    8    1
 -0.2563831166063777    4    4    8    6
 -0.009998448989469793    4    4    8    7
 0.8939969351674717    4    4    8    8
 -0.07905778703979793    4    4    9    1
 -0.0004197000486158356    4    4    9    6
 0.03846444098102043    4    4    9    7
 -0.002962659382562547    4    4    9    8
 0.3976123035781907    4    4    9    9
 0.2214558011848628    4    4   10    1
 0.001450003893130811    4    4   10    6
 -0.09910868889658743    4    4   10    7
 0.006588095637338504    4    4   10    8
 -0.03392662773206925    4    4   10    9
 0.9159196133023423    4    4   10   10
 -0.1963492733427336    4    4   11    1
 0.06098632721645578    4    4   11    6
 -0.005329492050371371    4    4   11    7
 -0.2380928728582499    4    4   11    8
 -0.004637161470393949    4    4   11    9
 0.01808636198749763    4    4   11   10
 0.1869056711802227    4    4   11   11
 -0.3127668990727142    4    4   12    2
 -0.03793197033392942    4    4   12    3
 0.2885990555585425    4    4   12    4
 -0.07409986849523828    4    4   12    5
 0.4002363010369357    4    4   12   12
 -0.03662352734777952    4    4   13    2
 0.02507554069820667    4    4   13    3
 -0.00806135443995455    4    4   13    4
 0.04876884134972899    4    4   13    5
 0.0326679654785304    4    4   13   12
 0.364490588443222    4    4   13   13
 -0.2705991332968979    4    4   14    2
 0.007036770681166846    4    4   14    3
 0.07863594590056593    4    4   14    4
 0.1799310647616953    4    4   14    5
 0.1864197953256271    4    4   14   12
 -0.02708790105337877    4    4   14   13
 0.9221969079766698    4    4   14   14
 -0.06665345547611819    4    4   15    2
 0.04180193101349814    4    4   15    3
 -0.1607875116783942    4    4   15    4
 0.2973229949912316    4    4   15    5
 -0.1352259398478001    4    4   15   12
 0.04593584690341487    4    4   15   13
 0.1819729282701504    4    4   15   14
 0.305385141529386    4    4   15   15
 0.01685995198269105    4    4   16    1
 -0.06940622347330089    4    4   16    6
 0.1659928396822144    4    4   16    7
 0.2728124852932305    4    4   16    8
 0.07807096238713751    4    4   16    9
 -0.2239475013485845    4    4   16   10
 -0.2215528089981401    4    4   16   11
 0.4951739914645917    4    4   16   16
 0.001071910385892473    5    1    2    1
 -0.0001971285105996368    5    1    3    1
 0.0001676279174510735    5    1    4    1
 0.4687410472653353    5    1    5    1
 1.013078509970455e-15    5    1    5    5
 -0.02003733761028189    5    1    6    2
 -0.08959597356756414    5    1    6    3
 -0.0163402006453832    5    1    6    4
 -0.004913188981601795    5    1    6    5
 0.2860509644727455    5    1    7    2
 -0.00825747120730385    5    1    7    3
 -0.02514661201600056    5    1    7    4
 -0.09232000551434633    5    1    7    5
 0.0316778113312088    5    1    8    2
 -0.05002086012235361    5    1    8    3
 0.04564148437492436    5    1    8    4
 -0.007877023917781716    5    1    8    5
 -0.004528936138739975    5    1    9    2
 -0.358014548220809    5    1    9    3
 0.02316367986507736    5    1    9    4
 -0.03008460149290053    5    1    9    5
 -0.02915335013391809    5    1   10    2
 -0.02844683607089288    5    1   10    3
 -0.3953893418442048    5    1   10    4
 0.06274425534398917    5    1   10    5
 0.1136146523779841    5    1   11    2
 -0.03054726592634901    5    1   11    3