 &FCI NORB=  14,NELEC= 8,MS2=0,
  ORBSYM=1,1,1,1,1,1,1,1,1,1,1,1,1,1
  ISYM=1,
 &END
 0.332378091944708    1    1    1    1
 -0.005074699193091985    1    1    2    1
 0.335445483025112    1    1    2    2
 0.001704968294770837    1    1    3    1
 -0.0001732877385442659    1    1    3    2
 0.3294403455685708    1    1    3    3
 0.003501780433279774    1    1    4    1
 -0.003620287307508584    1    1    4    2
 -0.0004076892060958038    1    1    4    3
 0.3424658319642568    1    1    4    4
 -0.002465789462346775    1    1    5    1
 0.002746916493238188    1    1    5    2
 0.003494078700874847    1    1    5    3
 4.709789961419852e-05    1    1    5    4
 0.3211143406665615    1    1    5    5
 -0.0003744852971029715    1    1    6    1
 0.009888869911277898    1    1    6    2
 -0.009144832885493618    1    1    6    3
 -0.003679914522970756    1    1    6    4
 0.001214261132158112    1    1    6    5
 0.3326512147269551    1    1    6    6
 0.002309969382872736    1    1    7    1
 0.00627565362047295    1    1    7    2
 0.004706210877453717    1    1    7    3
 -0.001987847963249832    1    1    7    4
 -0.003176477440238974    1    1    7    5
 -3.568370584874567e-05    1    1    7    6
 0.3298781035966338    1    1    7    7
 0.01499735871736489    1    1    8    1
 0.0006880757679235371    1    1    8    2
 0.001657046200659433    1    1    8    3
 0.003363821646569128    1    1    8    4
 0.0003930743245878464    1    1    8    5
 -0.003562983663931867    1    1    8    6
 -0.001906479397731607    1    1    8    7
 0.3328926864002616    1    1    8    8
 0.0006932742015590757    1    1    9    1
 0.0009784754042770211    1    1    9    2
 -0.001396057424264371    1    1    9    3
 -0.002914824667864392    1    1    9    4
 0.001428128767108301    1    1    9    5
 0.001415892634217941    1    1    9    6
 -0.003183946903191959    1    1    9    7
 -9.21968513060839e-05    1    1    9    8
 0.3307018604211177    1    1    9    9
 -0.0005030534483051428    1    1   10    1
 0.01177578484679301    1    1   10    2
 0.002059400464095677    1    1   10    3
 -0.0004432010382382345    1    1   10    4
 -0.001874852912772097    1    1   10    5
 0.002976203868832704    1    1   10    6
 0.002299026000977977    1    1   10    7
 -0.003756522903249562    1    1   10    8
 0.002166192394879224    1    1   10    9
 0.3416971792073958    1    1   10   10
 -0.0007014098904482881    1    1   11    1
 0.001828742848877025    1    1   11    2
 -0.00899263317978281    1    1   11    3
 0.001401764703090343    1    1   11    4
 -6.4422964246795e-05    1    1   11    5
 -0.0009457579713650563    1    1   11    6
 0.001779603782459518    1    1   11    7
 -0.00119686948613695    1    1   11    8
 -0.002911695195734004    1    1   11    9
 0.0001037945792937561    1    1   11   10
 0.3208934652488636    1    1   11   11
 -0.001174342969417402    1    1   12    1
 0.000729146322608322    1    1   12    2
 0.0003238137061233777    1    1   12    3
 -0.01151184367426648    1    1   12    4
 0.001484439203520364    1    1   12    5
 -0.0006420054967336622    1    1   12    6
 0.0008058765459299511    1    1   12    7
 -0.009388825156384669    1    1   12    8
 0.006332740673275314    1    1   12    9
 0.003326534366179284    1    1   12   10
 0.003384107125818471    1    1   12   11
 0.3334651666567977    1    1   12   12
 -0.001123202051265437    1    1   13    1
 1.245583781898062e-05    1    1   13    2
 0.0003427348805012948    1    1   13    3
 0.001559515560304124    1    1   13    4
 0.009308510528464474    1    1   13    5
 0.001744483205096977    1    1   13    6
 0.001411851065163734    1    1   13    7
 -0.009257677399040948    1    1   13    8
 -0.004505250258809915    1    1   13    9
 -0.0001557923522822946    1    1   13   10
 -0.003517440298314242    1    1   13   11
 0.0001843305273950529    1    1   13   12
 0.3278405974988042    1    1   13   13
 -0.0001999339900137925    1    1   14    1
 0.001388305800228695    1    1   14    2
 -0.001327398443464137    1    1   14    3
 -0.0003742116948560505    1    1   14    4
 0.0006040062617078817    1    1   14    5
 0.01480327512751171    1    1   14    6
 -0.0005563334640643625    1    1   14    7
 -0.0001695139092719317    1    1   14    8
 -0.002364473993602404    1    1   14    9
 0.003079886749175472    1    1   14   10
 0.002485159618488521    1    1   14   11
 0.005005990202262993    1    1   14   12
 0.001712319422364383    1    1   14   13
 0.3307244530739658    1    1   14   14
 -0.005074699193091999    2    1    1    1
 0.3354454830251119    2    1    2    1
 -0.0001957121977545564    2    1    2    2
 -0.0001732877385442677    2    1    3    1
 -0.004712802857837524    2    1    3    2
 0.004098368249356161    2    1    3    3
 -0.003620287307508588    2    1    4    1
 0.1989195467261229    2    1    4    2
 -0.1557979422017732    2    1    4    3
 -0.002718279215461292    2    1    4    4
 0.002746916493238181    2    1    5    1
 -0.1353362910634145    2    1    5    2
 -0.1708868106517598    2    1    5    3
 -0.003085234227743001    2    1    5    4
 0.002709756984868479    2    1    5    5
 0.009888869911277898    2    1    6    1
 -0.002100871285401956    2    1    6    2
 6.174213563380458e-05    2    1    6    3
 0.2344389466233366    2    1    6    4
 -0.03544476061266631    2    1    6    5
 0.0002206753477186196    2    1    6    6
 0.006275653620472943    2    1    7    1
 0.004374927136993743    2    1    7    2
 0.001839031861227683    2    1    7    3
 0.03491375912983136    2    1    7    4
 0.2304782205880427    2    1    7    5
 0.0003207429400158834    2    1    7    6
 -0.0001054772942842772    2    1    7    7
 0.0006880757679235371    2    1    8    1
 0.02076171989762618    2    1    8    2
 -0.00148806616388582    2    1    8    3
 -0.002328109067628915    2    1    8    4
 -0.003041861023230952    2    1    8    5
 0.1710482678192388    2    1    8    6
 0.163549435366752    2    1    8    7
 -0.0006209568929547212    2    1    8    8
 0.0009784754042770141    2    1    9    1
 -0.0009236273996964944    2    1    9    2
 0.0003317029143372566    2    1    9    3
 0.002468429284632988    2    1    9    4
 -0.0009593512626991235    2    1    9    5
 -0.1625485042214626    2    1    9    6
 0.1684848846482359    2    1    9    7
 0.001398807542549067    2    1    9    8
 0.0005157591967119984    2    1    9    9
 0.01177578484679301    2    1   10    1
 0.0001310624131334627    2    1   10    2
 0.000881722022236903    2    1   10    3
 0.009625584677636651    2    1   10    4
 -0.007757898222183295    2    1   10    5
 -0.001706418991632146    2    1   10    6
 -0.003116900803734713    2    1   10    7
 0.2464377166580831    2    1   10    8
 -0.03394667647634935    2    1   10    9
 0.003578336690267397    2    1   10   10
 0.001828742848877012    2    1   11    1
 0.0001127955757301707    2    1   11    2
 -0.0007334471400555157    2    1   11    3
 0.006505821467424861    2    1   11    4
 0.006860463130533997    2    1   11    5
 0.00233627505957984    2    1   11    6
 -0.00135308064129494    2    1   11    7
 0.03038405300737825    2    1   11    8
 0.219956958753312    2    1   11    9
 -0.00398481477761959    2    1   11   10
 -0.004432731615941342    2    1   11   11
 0.0007291463226083428    2    1   12    1
 -0.00785124267634689    2    1   12    2
 0.004055165925763642    2    1   12    3
 -3.472717900695338e-05    2    1   12    4
 0.0001429368241360821    2    1   12    5
 -0.01609701409226878    2    1   12    6
 -0.001362930760563243    2    1   12    7
 0.00159203044403354    2    1   12    8
 0.001532031091234974    2    1   12    9
 -0.1834226296460649    2    1   12   10
 -0.1521045779313744    2    1   12   11
 -0.005440726965271009    2    1   12   12
 1.245583781897715e-05    2    1   13    1
 -0.003917785127906413    2    1   13    2
 -0.005067806893734123    2    1   13    3
 0.0007313079908640224    2    1   13    4
 0.0006501049399497364    2    1   13    5
 -0.00157933128236366    2    1   13    6
 0.006717317545444926    2    1   13    7
 0.003598284767920101    2    1   13    8
 -0.001767103119834572    2    1   13    9
 -0.1538423071151798    2    1   13   10
 0.1739817330051327    2    1   13   11
 -0.002074390198704057    2    1   13   12
 0.002039025092191588    2    1   13   13
 0.001388305800228681    2    1   14    1
 -0.000570140705332442    2    1   14    2
 -0.0001953950790153491    2    1   14    3
 0.00959860739981238    2    1   14    4
 -0.001459883581181667    2    1   14    5
 0.0005170869040450124    2    1   14    6
 -0.0002773737280384603    2    1   14    7
 0.0144531821040952    2    1   14    8
 -0.01278370756896906    2    1   14    9
 -0.0006065509386449959    2    1   14   10
 -0.005067566225742073    2    1   14   11
 -0.3301984256208979    2    1   14   12
 -0.01356701999067554    2    1   14   13
 0.005426661813643784    2    1   14   14
 0.3354454830251119    2    2    1    1
 -0.0001957121977545564    2    2    2    1
 0.5053482140029723    2    2    2    2
 -0.004712802857837534    2    2    3    1
 -0.01856364612193574    2    2    3    2
 0.1619723199679495    2    2    3    3
 0.1989195467261229    2    2    4    1
 0.003668130032699862    2    2    4    2
 -0.003276889802244312    2    2    4    3
 0.3464497082680131    2    2    4    4
 -0.1353362910634145    2    2    5    1
 0.000282415951300255    2    2    5    2
 -0.001516950063119856    2    2    5    3
 -0.0001118190551504805    2    2    5    4
 0.3156874883587268    2    2    5    5
 -0.002100871285401942    2    2    6    1
 0.1601117356477972    2    2    6    2
 -0.08757099647631898    2    2    6    3
 0.0006127269737221629    2    2    6    4
 -0.003411959369874713    2    2    6    5
 0.3278662104405982    2    2    6    6
 0.00437492713699373    2    2    7    1
 -0.06680923883289867    2    2    7    2
 -0.1385551937397612    2    2    7    3
 0.0001334763015084645    2    2    7    4
 0.002654082929057486    2    2    7    5
 -0.0002727132360376971    2    2    7    6
 0.3340931714123752    2    2    7    7
 0.02076171989762618    2    2    8    1
 0.002222627838403463    2    2    8    2
 0.001531335986851453    2    2    8    3
 0.1459493632596956    2    2    8    4
 0.08827241531918456    2    2    8    5
 0.001858766128634646    2    2    8    6
 0.0002723040150112502    2    2    8    7
 0.3459932974097804    2    2    8    8
 -0.0009236273996964875    2    2    9    1
 0.003333700552875393    2    2    9    2
 -0.0005959485873292536    2    2    9    3
 -0.09221146174208909    2    2    9    4
 0.1395370950862595    2    2    9    5
 0.000291514457265378    2    2    9    6
 0.003119362891303407    2    2    9    7
 -0.003738445098867789    2    2    9    8
 0.3179236726008157    2    2    9    9
 0.0001310624131334558    2    2   10    1
 0.02293124156028942    2    2   10    2
 -0.0001180232946740153    2    2   10    3
 -0.001187448120411924    2    2   10    4
 -0.003487736056778067    2    2   10    5
 0.1485666840325145    2    2   10    6
 0.0957226795056392    2    2   10    7
 0.002751060572876933    2    2   10    8
 -0.003324936098718902    2    2   10    9
 0.3453867855345121    2    2   10   10
 0.0001127955757301638    2    2   11    1
 0.00336322904931674    2    2   11    2
 -0.006236973117477614    2    2   11    3
 0.002068221657288365    2    2   11    4
 -0.0001169918832309158    2    2   11    5
 -0.08698212066313205    2    2   11    6
 0.135658673548037    2    2   11    7
 0.000231930009320723    2    2   11    8
 7.021686683911232e-05    2    2   11    9
 0.001850223233707884    2    2   11   10
 0.3182649624934925    2    2   11   11
 -0.00785124267634691    2    2   12    1
 0.0005124036316195985    2    2   12    2
 0.0001898903692879508    2    2   12    3
 -0.0173083054574289    2    2   12    4
 0.002408883126702205    2    2   12    5
 -0.0007418739325358095    2    2   12    6
 0.001249253439450843    2    2   12    7
 -0.1586593481377818    2    2   12    8
 -0.07178242294734183    2    2   12    9
 -0.000682264206450317    2    2   12   10
 0.005913878021417893    2    2   12   11
 0.4946452330656444    2    2   12   12
 -0.003917785127906408    2    2   13    1
 0.0001716192825272998    2    2   13    2
 -0.0006049138047938304    2    2   13    3
 3.096684086548434e-05    2    2   13    4
 0.01145444227748425    2    2   13    5
 0.002863701456435312    2    2   13    6
 0.002343307787832129    2    2   13    7
 -0.09116093758815745    2    2   13    8
 0.1382019221167056    2    2   13    9
 -0.002626994404734193    2    2   13   10
 0.003490003371425934    2    2   13   11
 0.01346072800673962    2    2   13   12
 0.1644253481007617    2    2   13   13
 -0.0005701407053324559    2    2   14    1
 0.007012270101981077    2    2   14    2
 -0.003220524286564152    2    2   14    3
 -1.680064628086994e-05    2    2   14    4
 8.736758362788699e-05    2    2   14    5
 0.02045171868611672    2    2   14    6
 0.0001332431160845152    2    2   14    7
 0.0004727360292319342    2    2   14    8
 -0.00295925120910371    2    2   14    9
 0.1921212518404216    2    2   14   10
 0.139283833482693    2    2   14   11
 -0.005419206183001145    2    2   14   12
 -0.0006393916225007588    2    2   14   13
 0.3280869253192478    2    2   14   14
 0.001704968294770806    3    1    1    1
 -0.0001732877385442694    3    1    2    1
 -0.00471280285783752    3    1    2    2
 0.3294403455685708    3    1    3    1
 0.004098368249356155    3    1    3    2
 0.004522854030547639    3    1    3    3
 -0.0004076892060958033    3    1    4    1
 -0.1557979422017732    3    1    4    2
 -0.1969269804255567    3    1    4    3
 -0.0008493735387223242    3    1    4    4
 0.003494078700874843    3    1    5    1
 -0.1708868106517598    3    1    5    2
 0.1336865256942063    3    1    5    3
 0.0006678065387689409    3    1    5    4
 -0.0001554519071175191    3    1    5    5
 -0.009144832885493599    3    1    6    1
 6.174213563378377e-05    3    1    6    2
 0.001658674291352094    3    1    6    3
 0.03521761450827698    3    1    6    4
 0.2324954729868817    3    1    6    5
 0.001766418732963643    3    1    6    6
 0.004706210877453738    3    1    7    1
 0.001839031861227683    3    1    7    2
 0.003973986877157083    3    1    7    3
 -0.2289257177430478    3    1    7    4
 0.03459346947560611    3    1    7    5
 -0.0005334512518866798    3    1    7    6
 -0.001668688397087222    3    1    7    7
 0.001657046200659439    3    1    8    1
 -0.00148806616388582    3    1    8    2
 0.01821742831096448    3    1    8    3
 -0.001818748047829516    3    1    8    4
 -0.001100018252021345    3    1    8    5
 -0.1628298775530525    3    1    8    6
 0.1689093301647385    3    1    8    7
 -0.001883530529973806    3    1    8    8
 -0.001396057424264357    3    1    9    1
 0.000331702914337241    3    1    9    2
 0.002844835419622992    3    1    9    3
 0.00250704590864806    3    1    9    4
 -0.001644289364897944    3    1    9    5
 -0.1676146792296971    3    1    9    6
 -0.1603955274566279    3    1    9    7
 -0.000929774353708444    3    1    9    8
 0.002238572562354704    3    1    9    9
 0.002059400464095666    3    1   10    1
 0.0008817220222369091    3    1   10    2
 -0.000830754395773454    3    1   10    3
 -0.009956360543066776    3    1   10    4
 -0.006060880260738841    3    1   10    5
 -0.002177505930427657    3    1   10    6
 -0.001452530759655329    3    1   10    7
 0.03348006234373051    3    1   10    8
 0.2441658386155101    3    1   10    9
 0.001911636691196182    3    1   10   10
 -0.00899263317978281    3    1   11    1
 -0.0007334471400555157    3    1   11    2
 -0.00158399250437936    3    1   11    3
 0.004881417618462787    3    1   11    4
 -0.007274136443047982    3    1   11    5
 0.002037597371628437    3    1   11    6
 -0.001552913744518176    3    1   11    7
 -0.2180840007737626    3    1   11    8
 0.02994933799988461    3    1   11    9
 0.002796574701948944    3    1   11   10
 -0.002714554333176631    3    1   11   11
 0.0003238137061233916    3    1   12    1
 0.004055165925763646    3    1   12    2
 0.005352487893931351    3    1   12    3
 -0.001018231338718625    3    1   12    4
 -0.0007617631696630791    3    1   12    5
 0.0009404652551632175    3    1   12    6
 0.008081561613881436    3    1   12    7
 0.001412983691620077    3    1   12    8
 0.001699438799702553    3    1   12    9
 0.1549284202101625    3    1   12   10
 -0.1758192402122495    3    1   12   11
 0.0001353620360361706    3    1   12   12
 0.0003427348805013085    3    1   13    1
 -0.005067806893734119    3    1   13    2
 0.001388117684451228    3    1   13    3
 -0.0008103280378185677    3    1   13    4
 0.001303278686450485    3    1   13    5
 0.01350220175840801    3    1   13    6
 -0.001877272877528374    3    1   13    7
 0.001393003613022356    3    1   13    8
 -0.00306639658047196    3    1   13    9
 -0.1777284736032354    3    1   13   10
 -0.1470801571323861    3    1   13   11
 0.004974034906379669    3    1   13   12
 6.719604053195827e-05    3    1   13   13
 -0.001327398443464124    3    1   14    1
 -0.0001953950790153465    3    1   14    2
 0.0002010167584669117    3    1   14    3
 0.001695276207818936    3    1   14    4
 0.007072347400147951    3    1   14    5
 0.001468233780506325    3    1   14    6
 0.001172800173587762    3    1   14    7
 -0.01433442839747018    3    1   14    8
 -0.01168336019889051    3    1   14    9
 -0.004655383863688879    3    1   14   10
 -0.001960311304940876    3    1   14   11
 -0.01350164401468518    3    1   14   12
 0.3300821678492408    3    1   14   13
 -0.0003626068244867928    3    1   14   14
 -0.0001732877385442746    3    2    1    1
 -0.004712802857837548    3    2    2    1
 -0.01856364612193574    3    2    2    2
 0.004098368249356168    3    2    3    1
 0.1619723199679495    3    2    3    2
 0.01848065521869444    3    2    3    3
 -0.1557979422017732    3    2    4    1
 -0.003276889802244317    3    2    4    2
 -0.0007063206535180076    3    2    4    3
 0.001206493078919193    3    2    4    4
 -0.1708868106517598    3    2    5    1
 -0.001516950063119851    3    2    5    2
 0.00405377167474125    3    2    5    3
 0.00207691798154379    3    2    5    4
 -0.00103707991581601    3    2    5    5
 6.174213563376989e-05    3    2    6    1
 -0.08757099647631898    3    2    6    2
 -0.1397351892290166    3    2    6    3
 -0.002622162961949871    3    2    6    4
 0.003900933699526499    3    2    6    5
 -0.002810767740438924    3    2    6    6
 0.00183903186122771    3    2    7    1
 -0.1385551937397612    3    2    7    2
 0.08600763716640596    3    2    7    3
 -0.002919072290113627    3    2    7    4
 -0.00160553292705885    3    2    7    5
 0.004995414339075993    3    2    7    6
 0.002782745465604017    3    2    7    7
 -0.001488066163885822    3    2    8    1
 0.001531335986851456    3    2    8    2
 0.001633121789648173    3    2    8    3
 -0.1030371971660524    3    2    8    4
 0.1280030893882964    3    2    8    5
 -0.004125773408921672    3    2    8    6
 -0.0008094430385014485    3    2    8    7
 0.003500341043033234    3    2    8    8
 0.000331702914337248    3    2    9    1
 -0.0005959485873292484    3    2    9    2
 0.0003559658141170743    3    2    9    3
 -0.1292065075645042    3    2    9    4
 -0.1000979517059539    3    2    9    5
 -0.00173523010377289    3    2    9    6
 -0.003784831674200411    3    2    9    7
 0.01305608202188876    3    2    9    8
 -0.003585111914256135    3    2    9    9
 0.0008817220222369099    3    2   10    1
 -0.0001180232946740266    3    2   10    2
 0.007122066607997562    3    2   10    3
 9.269768941295954e-05    3    2   10    4
 -5.707195557917797e-05    3    2   10    5
 -0.1081395236654648    3    2   10    6
 0.1314557554839805    3    2   10    7
 -0.0009007055299347206    3    2   10    8
 0.004916574498357749    3    2   10    9
 -0.002013299663430192    3    2   10   10
 -0.0007334471400555122    3    2   11    1
 -0.006236973117477613    3    2   11    2
 0.001395082982898225    3    2   11    3
 0.001342012319965473    3    2   11    4
 0.000446449015788759    3    2   11    5
 -0.1212419072954316    3    2   11    6
 -0.09950910262865897    3    2   11    7
 -0.001726872468833886    3    2   11    8
 -0.003913944564174602    3    2   11    9
 0.000726607738104082    3    2   11   10
 0.002205768211482629    3    2   11   11
 0.004055165925763646    3    2   12    1
 0.0001898903692879438    3    2   12    2
 0.0007807559094699114    3    2   12    3
 0.00112801597074618    3    2   12    4
 -0.001091114094377328    3    2   12    5
 -0.0003878586262295487    3    2   12    6
 0.0002784729808035999    3    2   12    7
 0.0984409709643965    3    2   12    8
 -0.1311515346215691    3    2   12    9
 0.003855711989401022    3    2   12   10
 0.001817505558542192    3    2   12   11
 0.01354965378582101    3    2   12   12
 -0.005067806893734125    3    2   13    1
 -0.0006049138047938465    3    2   13    2
 -0.0001674747666910437    3    2   13    3
 0.001960657004327661    3    2   13    4
 -7.639217918029581e-05    3    2   13    5
 0.0002843218061743507    3    2   13    6
 0.000775011498957404    3    2   13    7
 -0.1298161785069784    3    2   13    8
 -0.09693848532245923    3    2   13    9
 -0.00146595911942054    3    2   13   10
 -0.004990724820839742    3    2   13   11
 -0.1643631709484413    3    2   13   12
 -0.01339114423631735    3    2   13   13
 -0.0001953950790153491    3    2   14    1
 -0.003220524286564158    3    2   14    2
 -0.003915348760208513    3    2   14    3
 0.0004594572424361665    3    2   14    4
 0.0006563598166184521    3    2   14    5
 -0.0003345256889932761    3    2   14    6
 -0.0009500211174180168    3    2   14    7
 0.0002160916777356817    3    2   14    8
 -0.0002883564428581998    3    2   14    9
 -0.1506569953738582    3    2   14   10
 0.1762694646221833    3    2   14   11
 0.001539929221021856    3    2   14   12
 0.005047535181572717    3    2   14   13
 -0.0001513194728130201    3    2   14   14
 0.3294403455685708    3    3    1    1
 0.004098368249356167    3    3    2    1
 0.1619723199679495    3    3    2    2
 0.004522854030547646    3    3    3    1
 0.01848065521869444    3    3    3    2
 0.5017510777632767    3    3    3    3
 -0.1969269804255567    3    3    4    1
 -0.0007063206535180074    3    3    4    2
 -0.004289281406450071    3    3    4    3
 0.3448878111879332    3    3    4    4
 0.1336865256942063    3    3    5    1
 0.004053771674741257    3    3    5    2
 0.00012694689594481    3    3    5    3
 7.252846623505868e-05    3    3    5    4
 0.3204641481906539    3    3    5    5
 0.001658674291352094    3    3    6    1
 -0.1397351892290166    3    3    6    2
 0.06643687647714173    3    3    6    3
 0.001199028166031694    3    3    6    4
 0.001530799315597969    3    3    6    5
 0.3379724827014821    3    3    6    6
 0.003973986877157083    3    3    7    1
 0.08600763716640596    3    3    7    2
 0.1559874963894233    3    3    7    3
 -8.071293774354008e-05    3    3    7    4
 0.0001295986246541328    3    3    7    5
 0.0002136051131132761    3    3    7    6
 0.3248043239178053    3    3    7    7
 0.01821742831096447    3    3    8    1
 0.001633121789648173    3    3    8    2
 0.003533309218980906    3    3    8    3
 -0.1425067490866726    3    3    8    4
 -0.09027206590667172    3    3    8    5
 -7.072828111651423e-05    3    3    8    6
 0.0004366254612791481    3    3    8    7
 0.3198432052277395    3    3    8    8
 0.002844835419622957    3    3    9    1
 0.0003559658141170713    3    3    9    2
 -0.004011017350155024    3    3    9    3
 0.08808392431590645    3    3    9    4
 -0.1405794511934197    3    3    9    5
 -0.002552301390352923    3    3    9    6
 -0.000640975538236231    3    3    9    7
 0.003710773918906996    3    3    9    8
 0.3437293259312282    3    3    9    9
 -0.0008307543957734364    3    3   10    1
 0.007122066607997567    3    3   10    2
 0.005601020480074322    3    3   10    3
 0.0005675731521140238    3    3   10    4
 -0.003205803951482684    3    3   10    5
 -0.1462194117749309    3    3   10    6
 -0.09340603226649501    3    3   10    7
 -0.0005467383785583726    3    3   10    8
 0.00367679724957513    3    3   10    9
 0.3442889351424001    3    3   10   10
 -0.001583992504379357    3    3   11    1
 0.001395082982898222    3    3   11    2
 -0.01768388971462822    3    3   11    3
 0.003300361260580402    3    3   11    4
 0.0001833178512311857    3    3   11    5
 0.08738766028608802    3    3   11    6
 -0.1356174685680476    3    3   11    7
 0.001273570100024406    3    3   11    8
 0.003062854115321131    3    3   11    9
 -0.001874552240903349    3    3   11   10
 0.3169126170123015    3    3   11   11
 0.005352487893931347    3    3   12    1
 0.0007807559094699101    3    3   12    2
 0.0007824604991736682    3    3   12    3
 -0.01227837873101271    3    3   12    4
 0.00147624292846133    3    3   12    5
 -0.002838647976621291    3    3   12    6
 0.001881088774342199    3    3   12    7
 0.139475613716561    3    3   12    8
 0.09112757630474015    3    3   12    9
 -0.002278035167153598    3    3   12   10
 -0.0008314361277566257    3    3   12   11
 0.1674340858977825    3    3   12   12
 0.001388117684451239    3    3   13    1
 -0.0001674747666910541    3    3   13    2
 0.001197999067866932    3    3   13    3
 0.004120160760938371    3    3   13    4
 0.01311763967505334    3    3   13    5
 0.002378334644243826    3    3   13    6
 0.002645042500748824    3    3   13    7
 0.0700247983922625    3    3   13    8
 -0.1551132191476304    3    3   13    9
 -0.004465548591271282    3    3   13   10
 -0.001820305011766398    3    3   13   11
 -0.01364316956514022    3    3   13   12
 0.4948644338207159    3    3   13   13
 0.0002010167584669152    3    3   14    1
 -0.003915348760208513    3    3   14    2
 0.0001049807388855221    3    3   14    3
 -0.0004449709609053562    3    3   14    4
 0.001179119909627318    3    3   14    5
 0.01807202647009525    3    3   14    6
 -0.001643153072249858    3    3   14    7
 -0.0001291182548437653    3    3   14    8
 -0.005818803767014459    3    3   14    9
 -0.1907502245726369    3    3   14   10
 -0.1378684123792292    3    3   14   11
 0.002128042333686664    3    3   14   12
 -0.0004853309648076981    3    3   14   13
 0.3332237076701596    3    3   14   14
 0.003501780433279787    4    1    1    1
 -0.003620287307508588    4    1    2    1
 0.1989195467261229    4    1    2    2
 -0.0004076892060958176    4    1    3    1
 -0.1557979422017732    4    1    3    2
 -0.1969269804255567    4    1    3    3
 0.3424658319642568    4    1    4    1
 -0.002718279215461304    4    1    4    2
 -0.0008493735387223207    4    1    4    3
 0.000338284400886524    4    1    4    4
 4.709789961419852e-05    4    1    5    1
 -0.003085234227743001    4    1    5    2
 0.0006678065387689374    4    1    5    3
 -0.002202042012629787    4    1    5    4
 -0.002180075338688772    4    1    5    5
 -0.003679914522970729    4    1    6    1
 0.2344389466233366    4    1    6    2
 0.03521761450827698    4    1    6    3
 -0.0009426660485946257    4    1    6    4
 0.0003108625342830781    4    1    6    5
 -0.002548010054727551    4    1    6    6
 -0.001987847963249828    4    1    7    1
 0.03491375912983139    4    1    7    2
 -0.2289257177430479    4    1    7    3
 -0.003382855708288097    4    1    7    4
 2.142191573933916e-06    4    1    7    5
 -0.003854761378283205    4    1    7    6
 0.002117163516142162    4    1    7    7
 0.003363821646569128    4    1    8    1
 -0.002328109067628887    4    1    8    2
 -0.001818748047829523    4    1    8    3
 0.2414491891859808    4    1    8    4
 -0.01222816810286001    4    1    8    5
 -0.002157103620200878    4    1    8    6
 0.002158889102800965    4    1    8    7
 0.01143506313796469    4    1    8    8
 -0.002914824667864389    4    1    9    1
 0.002468429284632964    4    1    9    2
 0.002507045908648064    4    1    9    3
 0.01238566758733035    4    1    9    4
 0.232950002537176    4    1    9    5
 0.001507260066958348    4    1    9    6
 -0.001220135187909276    4    1    9    7
 -0.01557304891988917    4    1    9    8
 -0.01115761127781578    4    1    9    9
 -0.0004432010382382345    4    1   10    1
 0.009625584677636637    4    1   10    2
 -0.00995636054306678    4    1   10    3
 -0.002334497697146391    4    1   10    4
 0.0003861836167734223    4    1   10    5
 0.2489993643416351    4    1   10    6
 -0.009513463770062635    4    1   10    7
 -0.0005579099590202474    4    1   10    8
 -0.001559184197697041    4    1   10    9
 0.002702013159595076    4    1   10   10
 0.001401764703090332    4    1   11    1
 0.006505821467424858    4    1   11    2
 0.004881417618462787    4    1   11    3
 -0.002274647552694584    4    1   11    4
 -0.001599334406171868    4    1   11    5
 0.008819739748905044    4    1   11    6
 0.2277612501184675    4    1   11    7
 -0.004960035367908034    4    1   11    8
 -0.0009727312846924165    4    1   11    9
 0.001902750336783414    4    1   11   10
 -0.001605486437736253    4    1   11   11
 -0.01151184367426647    4    1   12    1
 -3.47271790069846e-05    4    1   12    2
 -0.001018231338718633    4    1   12    3
 -0.004637189265041697    4    1   12    4
 0.00164248695106433    4    1   12    5
 0.00269987995017678    4    1   12    6
 8.134205001830708e-05    4    1   12    7
 -0.2425146482833055    4    1   12    8
 0.02335945810621226    4    1   12    9
 0.005093051235366054    4    1   12   10
 -0.0001800937567704129    4    1   12   11
 0.1633753651126084    4    1   12   12
 0.001559515560304128    4    1   13    1
 0.000731307990864012    4    1   13    2