 &FCI NORB=  16,NELEC= 8,MS2=0,
  ORBSYM=1,1,1,1,1,1,1,1,1,1,1,1,1,1,1,1
  ISYM=1,
 &END
 0.2250022890343985    1    1    1    1
 0.2278248615751702    1    1    2    2
 -4.816031477349741e-06    1    1    3    2
 0.2273847817546935    1    1    3    3
 1.401902035841687e-05    1    1    4    2
 1.61842534641965e-06    1    1    4    3
 0.2257597824502191    1    1    4    4
 -1.705878597044945e-05    1    1    5    2
 -6.898771925829437e-06    1    1    5    3
 4.427952277379175e-06    1    1    5    4
 0.2188038240379791    1    1    5    5
 0.0002232945978414905    1    1    6    1
 0.2302313802458573    1    1    6    6
 -0.001291600330888713    1    1    7    1
 -1.85934554313566e-06    1    1    7    6
 0.2280396876087903    1    1    7    7
 0.0005667109690254592    1    1    8    1
 -5.672382934396441e-07    1    1    8    6
 3.382444168155963e-06    1    1    8    7
 0.2257960312186754    1    1    8    8
 0.0001152608244751907    1    1    9    1
 -1.165251482389326e-07    1    1    9    6
 6.88770268347631e-07    1    1    9    7
 4.504431090298438e-07    1    1    9    8
 0.2245507643929201    1    1    9    9
 -0.0002310308591709911    1    1   10    1
 2.345546390432619e-07    1    1   10    6
 -1.38407541186535e-06    1    1   10    7
 -9.063394784498617e-07    1    1   10    8
 -1.862042711255202e-07    1    1   10    9
 0.2240762215052809    1    1   10   10
 -0.004920653048793957    1    1   11    1
 -7.421381684913353e-06    1    1   11    6
 4.332798373270219e-05    1    1   11    7
 1.310617656566488e-05    1    1   11    8
 2.700166645909223e-06    1    1   11    9
 -5.438147724962067e-06    1    1   11   10
 0.2165997616092635    1    1   11   11
 -0.002349667984078957    1    1   12    2
 0.0002127795989647595    1    1   12    3
 -0.0007082820209212172    1    1   12    4
 -0.0007960545458317674    1    1   12    5
 0.2277651452774533    1    1   12   12
 -0.0002559728862950826    1    1   13    2
 0.00274392943672082    1    1   13    3
 0.0001102227098695365    1    1   13    4
 0.0003052600460432668    1    1   13    5
 9.894380099025046e-07    1    1   13   12
 0.227316453480142    1    1   13   13
 -0.0007209849928233782    1    1   14    2
 -0.0001173951688919882    1    1   14    3
 -0.001295429993938653    1    1   14    4
 3.278505670699426e-05    1    1   14    5
 2.918747647620221e-06    1    1   14   12
 -3.113406844296868e-07    1    1   14   13
 0.2257399249880264    1    1   14   14
 -0.0007668632896495528    1    1   15    2
 -0.0003024140121410402    1    1   15    3
 3.966024088898471e-05    1    1   15    4
 0.006092841714247945    1    1   15    5
 -3.336193169737418e-06    1    1   15   12
 1.310528829397833e-06    1    1   15   13
 8.214959737394795e-07    1    1   15   14
 0.218455226436315    1    1   15   15
 7.250711909752468e-05    1    1   16    1
 0.0002180377270037809    1    1   16    6
 -0.001274094973834683    1    1   16    7
 -0.0005746986389855598    1    1   16    8
 -0.0001182326280500192    1    1   16    9
 0.0002380216091408988    1    1   16   10
 -0.005106454484873763    1    1   16   11
 0.2247538643848129    1    1   16   16
 0.2278248615751701    2    1    2    1
 -4.816031477332394e-06    2    1    3    1
 1.401902035842034e-05    2    1    4    1
 -1.705878597045292e-05    2    1    5    1
 0.1248800382059102    2    1    6    2
 -0.1910046483063886    2    1    6    3
 0.02094606683190501    2    1    6    4
 0.002200399483692492    2    1    6    5
 -0.112341391938961    2    1    7    2
 -0.007188300449014196    2    1    7    3
 -0.08091781118822301    2    1    7    4
 -0.005842503961242604    2    1    7    5
 0.1426022628378535    2    1    8    2
 0.07013106152639759    2    1    8    3
 -0.08542639268422499    2    1    8    4
 -0.1307363056425936    2    1    8    5
 0.01388061475304557    2    1    9    2
 -0.02728592525504625    2    1    9    3
 -0.05894798978922363    2    1    9    4
 0.02783556588610847    2    1    9    5
 0.05047952164470591    2    1   10    2
 0.04451015896370962    2    1   10    3
 0.09999186129727522    2    1   10    4
 0.07878089714044122    2    1   10    5
 -0.0824769778630087    2    1   11    2
 -0.001030888371089871    2    1   11    3
 0.005119256635248983    2    1   11    4
 -0.01510021775168551    2    1   11    5
 -0.002349667984078957    2    1   12    1
 -0.1218222969812059    2    1   12    6
 0.1121536362489597    2    1   12    7
 0.1446575297355765    2    1   12    8
 0.01423255288933293    2    1   12    9
 0.05121671439793426    2    1   12   10
 0.0864175518559343    2    1   12   11
 -0.0002559728862950791    2    1   13    1
 -0.1896330837095465    2    1   13    6
 -0.006298971585416015    2    1   13    7
 -0.06939586651190395    2    1   13    8
 0.02767805643575283    2    1   13    9
 -0.0446814062409542    2    1   13   10
 -0.0002506446580014324    2    1   13   11
 -0.000720984992823373    2    1   14    1
 -0.02103987974368129    2    1   14    6
 0.08039367994905365    2    1   14    7
 -0.08473795565919616    2    1   14    8
 -0.05926129696626805    2    1   14    9
 0.1011028507564271    2    1   14   10
 -0.004475187872898941    2    1   14   11
 -0.0007668632896495526    2    1   15    1
 -0.001994749234186185    2    1   15    6
 0.005058628038077249    2    1   15    7
 -0.1267825803508144    2    1   15    8
 0.02706264615579835    2    1   15    9
 0.07674288671660859    2    1   15   10
 0.01552040990279687    2    1   15   11
 0.002336731169931404    2    1   16    2
 -0.0002330877879919667    2    1   16    3
 0.0007053973064179639    2    1   16    4
 0.0007922821751810672    2    1   16    5
 -0.2247758642324895    2    1   16   12
 -0.001930288487435705    2    1   16   13
 -0.001263764404831372    2    1   16   14
 0.0003399955013767754    2    1   16   15
 0.2278248615751701    2    2    1    1
 0.4816455363719756    2    2    2    2
 -0.04703335146436444    2    2    3    2
 0.1926323808953198    2    2    3    3
 0.01419671374280392    2    2    4    2
 -0.01435794902074061    2    2    4    3
 0.1231535154979148    2    2    4    4
 -0.05328353057833816    2    2    5    2
 -0.02990822193180022    2    2    5    3
 0.07922366629443926    2    2    5    4
 0.1080665014980793    2    2    5    5
 0.1248800382059101    2    2    6    1
 0.4504774683696853    2    2    6    6
 -0.1123413919389611    2    2    7    1
 -0.1237174653933267    2    2    7    6
 0.1669473962116371    2    2    7    7
 0.1426022628378535    2    2    8    1
 -0.000398741687835482    2    2    8    6
 0.001583222044881017    2    2    8    7
 0.4361320384289206    2    2    8    8
 0.01388061475304556    2    2    9    1
 -7.827434206996394e-05    2    2    9    6
 0.0001697210777503909    2    2    9    7
 0.01406226845271462    2    2    9    8
 0.04629931817341858    2    2    9    9
 0.0504795216447059    2    2   10    1
 0.0001006240846058815    2    2   10    6
 3.202059028482867e-06    2    2   10    7
 -0.07248256014778072    2    2   10    8
 -0.03851837740573627    2    2   10    9
 0.1851540409803779    2    2   10   10
 -0.0824769778630087    2    2   11    1
 -0.08864147664921071    2    2   11    6
 0.07955299795119855    2    2   11    7
 0.002788194151333165    2    2   11    8
 0.0003056193428402629    2    2   11    9
 0.001296692486665422    2    2   11   10
 0.06436512331601599    2    2   11   11
 -0.05040158922725041    2    2   12    2
 0.1504897296014375    2    2   12    3
 -0.08443623410734066    2    2   12    4
 -0.07404032616047879    2    2   12    5
 0.4781191318929518    2    2   12   12
 -0.1518414528877878    2    2   13    2
 0.1237305016025526    2    2   13    3
 -0.01597262810460785    2    2   13    4
 0.02626916752886924    2    2   13    5
 0.04610507926760574    2    2   13   12
 0.1900338238616816    2    2   13   13
 -0.08371519095212276    2    2   14    2
 0.01590670368681603    2    2   14    3
 0.06218452698961469    2    2   14    4
 0.07531506777193468    2    2   14    5
 0.01518722128014376    2    2   14   12
 0.0137034364763671    2    2   14   13
 0.1234237444383613    2    2   14   14
 -0.07059554272207977    2    2   15    2
 -0.02600126026358622    2    2   15    3
 0.07349868677527588    2    2   15    4
 0.1025126172684241    2    2   15    5
 -0.05257167162350315    2    2   15   12
 0.02848068219795867    2    2   15   13
 0.07670663740730642    2    2   15   14
 0.1019753655437144    2    2   15   15
 0.002336731169931418    2    2   16    1
 0.1219543473795208    2    2   16    6
 -0.1110757510167078    2    2   16    7
 -0.1418840356348104    2    2   16    8
 -0.01390716468335076    2    2   16    9
 -0.05060876320636976    2    2   16   10
 -0.08523693054708138    2    2   16   11
 0.2218497529447737    2    2   16   16
 -4.816031477335864e-06    3    1    2    1
 0.2273847817546936    3    1    3    1
 1.61842534641965e-06    3    1    4    1
 -6.898771925832907e-06    3    1    5    1
 -0.1910046483063886    3    1    6    2
 -0.1087467349216088    3    1    6    3
 -0.04686135765634911    3    1    6    4
 -0.01045650810629901    3    1    6    5
 -0.007188300449014196    3    1    7    2
 -0.1441373670662802    3    1    7    3
 -0.02209210806531751    3    1    7    4
 -0.003272705788079856    3    1    7    5
 0.0701310615263976    3    1    8    2
 -0.0825753886429765    3    1    8    3
 -0.0309157595937706    3    1    8    4
 -0.02922671341581693    3    1    8    5
 -0.02728592525504625    3    1    9    2
 0.001189987869032412    3    1    9    3
 0.1404191478708988    3    1    9    4
 -0.1591662983471716    3    1    9    5
 0.04451015896370961    3    1   10    2
 -0.1059477482883008    3    1   10    3
 0.05045173181321258    3    1   10    4
 0.0004389707601238945    3    1   10    5
 -0.001030888371089871    3    1   11    2
 -0.08322503011475023    3    1   11    3
 0.0008995497852989612    3    1   11    4
 -0.006176281433611263    3    1   11    5
 0.0002127795989647595    3    1   12    1
 0.1896017847462105    3    1   12    6
 0.008452806440828457    3    1   12    7
 0.07019662623918983    3    1   12    8
 -0.02870755666036678    3    1   12    9
 0.04402723711155459    3    1   12   10
 0.001745769610775886    3    1   12   11
 0.002743929436720813    3    1   13    1
 -0.105727601710082    3    1   13    6
 -0.1433920473086193    3    1   13    7
 0.08387688915275487    3    1   13    8
 -0.001239857668107433    3    1   13    9
 0.107962622430556    3    1   13   10
 -0.08737333111606663    3    1   13   11
 -0.0001173951688919865    3    1   14    1
 0.047094705958818    3    1   14    6
 0.02195724990492719    3    1   14    7
 -0.03062484445032334    3    1   14    8
 0.1411009549073767    3    1   14    9
 0.05101244219655056    3    1   14   10
 -0.0008038001446106949    3    1   14   11
 -0.0003024140121410517    3    1   15    1
 0.009605398472344753    3    1   15    6
 0.002903221237595238    3    1   15    7
 -0.02833772314200366    3    1   15    8
 -0.1547664138753279    3    1   15    9
 0.0004441530342600659    3    1   15   10
 0.006345691555883905    3    1   15   11
 -0.0002330877879919563    3    1   16    2
 0.002724282941416103    3    1   16    3
 0.000116106520361081    3    1   16    4
 0.000312565028486457    3    1   16    5
 -0.001930930843847455    3    1   16   12
 0.224775801141312    3    1   16   13
 -0.0001869398622855057    3    1   16   14
 0.0001437622825283954    3    1   16   15
 -4.81603147735668e-06    3    2    1    1
 -0.04703335146436444    3    2    2    2
 0.1926323808953198    3    2    3    2
 0.04832472680639292    3    2    3    3
 -0.01435794902074061    3    2    4    2
 0.02292597617180539    3    2    4    3
 0.0009450640150006815    3    2    4    4
 -0.02990822193180023    3    2    5    2
 0.01915822718903467    3    2    5    3
 0.05309975526489762    3    2    5    4
 -0.002240162745681032    3    2    5    5
 -0.1910046483063886    3    2    6    1
 -0.03500670882070309    3    2    6    6
 -0.007188300449014189    3    2    7    1
 0.2252557562959503    3    2    7    6
 0.03185058846802949    3    2    7    7
 0.07013106152639759    3    2    8    1
 0.0002673528906308275    3    2    8    6
 0.0005592417167208716    3    2    8    7
 0.09350637376665034    3    2    8    8
 -0.02728592525504625    3    2    9    1
 0.00012461354804535    3    2    9    6
 -0.0001196322610212188    3    2    9    7
 0.03824387133315339    3    2    9    8
 -0.1162582502053392    3    2    9    9
 0.04451015896370961    3    2   10    1
 -0.0002541788035777853    3    2   10    6
 0.0001669827230734739    3    2   10    7
 -0.04873179617561016    3    2   10    8
 0.005078084232590439    3    2   10    9
 0.02344700530092225    3    2   10   10
 -0.001030888371089868    3    2   11    1
 0.139571797079267    3    2   11    6
 0.00608918541276841    3    2   11    7
 0.001445925050172128    3    2   11    8
 -0.0006345411391818807    3    2   11    9
 0.001098086158649077    3    2   11   10
 0.00246670585654564    3    2   11   11
 0.1504897296014375    3    2   12    2
 -0.1235357492551991    3    2   12    3
 0.01491641930409891    3    2   12    4
 -0.0272500079148648    3    2   12    5
 -0.0403732177575072    3    2   12   12
 0.1237305016025526    3    2   13    2
 0.1403019877432929    3    2   13    3
 0.05595675841389663    3    2   13    4
 -0.002013490318178411    3    2   13    5
 -0.1902794993503903    3    2   13   12
 0.04180245527635487    3    2   13   13
 0.01590670368681603    3    2   14    2
 -0.05628375084495313    3    2   14    3
 -0.006216872227252096    3    2   14    4
 0.05310168675998249    3    2   14    5
 -0.01327486618022573    3    2   14   12
 -0.02276196223237626    3    2   14   13
 0.0007269225840494634    3    2   14   14
 -0.02600126026358621    3    2   15    2
 0.002002197417487309    3    2   15    3
 0.05154174579070768    3    2   15    4
 -0.003046436719692308    3    2   15    5
 -0.02912906977441906    3    2   15   12
 -0.01845616599876865    3    2   15   13
 0.05169322553261088    3    2   15   14
 -0.00215243671424473    3    2   15   15
 -0.0002330877879919667    3    2   16    1
 -0.1864749486397326    3    2   16    6
 -0.007243427717670812    3    2   16    7
 -0.06985585479554969    3    2   16    8
 0.02731304930797785    3    2   16    9
 -0.04464739548667972    3    2   16   10
 -0.0009670804808285458    3    2   16   11
 -8.983346277517679e-07    3    2   16   16
 0.2273847817546935    3    3    1    1
 0.1926323808953198    3    3    2    2
 0.04832472680639293    3    3    3    2
 0.4796090861985181    3    3    3    3
 0.02292597617180539    3    3    4    2
 0.02394686937342762    3    3    4    3
 0.1150834908424073    3    3    4    4
 0.01915822718903467    3    3    5    2
 0.01901541746279887    3    3    5    3
 -0.09301199789730877    3    3    5    4
 0.1173020132198421    3    3    5    5
 -0.1087467349216088    3    3    6    1
 0.4347783854901622    3    3    6    6
 -0.1441373670662802    3    3    7    1
 0.1563919382504352    3    3    7    6
 0.1845206310192089    3    3    7    7
 -0.0825753886429765    3    3    8    1
 0.0002873825850851241    3    3    8    6
 -6.067034907937231e-05    3    3    8    7
 0.1211052672060725    3    3    8    8
 0.001189987869032419    3    3    9    1
 5.665119163806258e-05    3    3    9    6
 0.000119359039429593    3    3    9    7
 -0.0166400057760015    3    3    9    8
 0.4029596911122102    3    3    9    9
 -0.1059477482883008    3    3   10    1
 -3.834839789405093e-05    3    3   10    6
 -0.0006744112752692371    3    3   10    7
 0.09296102355851342    3    3   10    8
 0.05090212009652862    3    3   10    9
 0.1423566185579362    3    3   10   10
 -0.08322503011475024    3    3   11    1
 0.08209024315979663    3    3   11    6
 0.1066812781065242    3    3   11    7
 -0.001825387460787706    3    3   11    8
 1.33203835430047e-06    3    3   11    9
 -0.002580695573290331    3    3   11   10
 0.06366444553164276    3    3   11   11
 -0.1235357492551991    3    3   12    2
 -0.1422110771917409    3    3   12    3
 -0.05705352237514132    3    3   12    4
 0.002566218145252886    3    3   12    5
 0.1906299879930322    3    3   12   12
 0.1403019877432929    3    3   13    2
 0.09236291742550279    3    3   13    3
 0.0470957491224622    3    3   13    4
 -0.000417995867715498    3    3   13    5
 -0.04752637018703919    3    3   13   12
 0.4767612122584808    3    3   13   13
 -0.05628375084495313    3    3   14    2
 -0.04798647121967548    3    3   14    3
 0.0921977592728242    3    3   14    4
 -0.09838246587492624    3    3   14    5
 0.0220561058868598    3    3   14   12
 -0.02287020116774694    3    3   14   13
 0.1161815227707152    3    3   14   14
 0.002002197417487312    3    3   15    2
 0.000521823691550611    3    3   15    3
 -0.09501065867279855    3    3   15    4
 0.112711622867541    3    3   15    5
 0.01913138382858417    3    3   15   12
 -0.01811087574994331    3    3   15   13
 -0.09108533904010793    3    3   15   14
 0.1108503058216825    3    3   15   15
 0.002724282941416113    3    3   16    1
 -0.1061929082013828    3    3   16    6
 -0.1418854515339944    3    3   16    7
 0.08234609043185871    3    3   16    8
 -0.001199999781812638    3    3   16    9
 0.1063345424369587    3    3   16   10
 -0.08641146432158489    3    3   16   11
 0.2222801793280727    3    3   16   16
 1.401902035842381e-05    4    1    2    1
 1.61842534641618e-06    4    1    3    1
 0.225759782450219    4    1    4    1
 4.427952277375651e-06    4    1    5    1
 0.02094606683190501    4    1    6    2
 -0.04686135765634911    4    1    6    3
 -0.01295752650432192    4    1    6    4
 0.0001385018019244331    4    1    6    5
 -0.08091781118822301    4    1    7    2
 -0.02209210806531751    4    1    7    3
 0.2367706915087636    4    1    7    4
 -0.005173768310401617    4    1    7    5
 -0.08542639268422499    4    1    8    2
 -0.03091575959377059    4    1    8    3
 -0.04564988557408047    4    1    8    4
 0.07183125443121052    4    1    8    5
 -0.05894798978922364    4    1    9    2
 0.1404191478708988    4    1    9    3
 -0.01185744884443713    4    1    9    4
 -0.01426355783813636    4    1    9    5
 0.09999186129727522    4    1   10    2
 0.05045173181321259    4    1   10    3
 0.04979593433049734    4    1   10    4
 0.1460827416541416    4    1   10    5
 0.005119256635248986    4    1   11    2
 0.0008995497852989616    4    1   11    3
 -0.105790624809065    4    1   11    4
 0.002084225688238743    4    1   11    5
 -0.0007082820209212172    4    1   12    1
 -0.02036170641458276    4    1   12    6
 0.08199540950485351    4    1   12    7
 -0.08633231740380887    4    1   12    8
 -0.05856676477193073    4    1   12    9
 0.1020940158453158    4    1   12   10
 -0.005634253327507771    4    1   12   11
 0.0001102227098695339    4    1   13    1
 -0.04643778235764742    4    1   13    6
 -0.02144730745384157    4    1   13    7
 0.03035980304397745    4    1   13    8
 -0.1426791072891733    4    1   13    9
 -0.05038193988821829    4    1   13   10
 0.0009303754736418321    4    1   13   11
 -0.001295429993938658    4    1   14    1
 0.01264405814235756    4    1   14    6
 -0.2340687709201108    4    1   14    7
 -0.0452244661212886    4    1   14    8
 -0.01197322619870186    4    1   14    9
 0.05041084818151815    4    1   14   10
 0.1104765005125963    4    1   14   11
 3.966024088897431e-05    4    1   15    1
 -0.0001300340873188578    4    1   15    6
 0.004808091376049643    4    1   15    7
 0.06961890430430689    4    1   15    8
 -0.0138883089097722    4    1   15    9
 0.1422918409135524    4    1   15   10
 -0.002027943723754765    4    1   15   11
 0.0007053973064179587    4    1   16    2
 0.0001161065203610801    4    1   16    3
 0.001298743792204748    4    1   16    4
 -4.02425804446914e-05    4    1   16    5
 0.0012708146489119    4    1   16   12
 -0.0001766208900615546    4    1   16   13
 -0.2247805068749625    4    1   16   14
 -0.0001053753823908349    4    1   16   15
 1.40190203584134e-05    4    2    1    1
 0.01419671374280392    4    2    2    2
 -0.01435794902074061    4    2    3    2
 0.02292597617180539    4    2    3    3
 0.1231535154979148    4    2    4    2
 0.0009450640150006819    4    2    4    3
 -0.04510144000963073    4    2    4    4
 0.07922366629443926    4    2    5    2
 0.0530997552648976    4    2    5    3
 0.0436540520300848    4    2    5    4
 0.007989660208460404    4    2    5    5
 0.02094606683190501    4    2    6    1
 0.09688947994765459    4    2    6    6
 -0.08091781118822301    4    2    7    1
 -0.008287755112874049    4    2    7    6
 -0.08573274208918451    4    2    7    7
 -0.08542639268422499    4    2    8    1
 5.158402137933146e-05    4    2    8    6
 -0.000285096488676432    4    2    8    7
 -0.1742001315207433    4    2    8    8
 -0.05894798978922364    4    2    9    1
 4.099218572946755e-05    4    2    9    6
 -0.0002094471116004834    4    2    9    7
 0.03804902272146673    4    2    9    8
 -0.0391133734787977    4    2    9    9
 0.09999186129727522    4    2   10    1
 -5.764646394130322e-05    4    2   10    6
 0.0002758479523463771    4    2   10    7
 -0.04302990407412281    4    2   10    8
 0.009088705015699746    4    2   10    9
 0.2111980810208457    4    2   10   10
 0.005119256635248983    4    2   11    1
 -0.01544711824804552    4    2   11    6
 0.07109929301595704    4    2   11    7
 -0.001888026265553026    4    2   11    8
 -0.001405736726904864    4    2   11    9
 0.002535888626294144    4    2   11   10
 -0.009058062695623433    4    2   11   11
 -0.08443623410734066    4    2   12    2
 0.01491641930409891    4    2   12    3
 0.06251351230858995    4    2   12    4
 0.07671899308476543    4    2   12    5
 0.0119250797001298    4    2   12   12
 -0.01597262810460784    4    2   13    2
 0.05595675841389663    4    2   13    3
 0.006894607370274016    4    2   13    4
 -0.05293778764646416    4    2   13    5
 0.01345862394047645    4    2   13   12
 0.0219709138044121    4    2   13   13
 0.06218452698961469    4    2   14    2
 -0.00621687222725209    4    2   14    3
 0.129577540745444    4    2   14    4
 0.04083941956099423    4    2   14    5
 0.124798694585455    4    2   14   12
 0.0001926598461247445    4    2   14   13
 -0.04183751092679914    4    2   14   14
 0.07349868677527588    4    2   15    2
 0.05154174579070768    4    2   15    3
 0.03903690111137218    4    2   15    4
 0.008012740061907851    4    2   15    5
 0.07797545390344633    4    2   15   12
 -0.05150452880465757    4    2   15   13
 0.04348961013247553    4    2   15   14
 0.007930607308817408    4    2   15   15
 0.0007053973064179604    4    2   16    1
 0.02041894740505616    4    2   16    6
 -0.07942692770592417    4    2   16    7
 0.08529661868513197    4    2   16    8
 0.05905115272894641    4    2   16    9
 -0.1003829226256601    4    2   16   10
 0.004932492388916737    4    2   16   11
 2.729795489616813e-06    4    2   16   16
 1.618425346412711e-06    4    3    1    1
 -0.01435794902074061    4    3    2    2
 0.02292597617180539    4    3    3    2
 0.02394686937342762    4    3    3    3
 0.000945064015000678    4    3    4    2
 0.1150834908424073    4    3    4    3
 -0.01069489792649891    4    3    4    4
 0.05309975526489762    4    3    5    2
 -0.09301199789730877    4    3    5    3
 0.01461832325340047    4    3    5    4
 0.001107224412762691    4    3    5    5
 -0.04686135765634911    4    3    6    1
 0.01461636827710316    4    3    6    6
 -0.02209210806531751    4    3    7    1
 0.05934657715281202    4    3    7    6
 -0.01254988913616141    4    3    7    7
 -0.03091575959377059    4    3    8    1
 0.0001187332786809612    4    3    8    6
 -0.0001351523104706582    4    3    8    7
 -0.03628303954167986    4    3    8    8
 0.1404191478708988    4    3    9    1
 -0.0001008360681881063    4    3    9    6
 0.0006833429550838787    4    3    9    7
 -0.1347445739219181    4    3    9    8
 0.02078037041831407    4    3    9    9
 0.05045173181321258    4    3   10    1
 -9.478276664334453e-05    4    3   10    6
 0.0001720000891153573    4    3   10    7
 -0.02504662464468746    4    3   10    8
 -0.1635115933435867    4    3   10    9
 0.01515473371699507    4    3   10   10
 0.0008995497852989621    4    3   11    1
 0.03421103188301185    4    3   11    6
 0.01931731733385865    4    3   11    7
 -0.0006596075617016651    4    3   11    8
 0.003283907687904652    4    3   11    9
 0.001264381226497371    4    3   11   10
 -0.001720482224217205    4    3   11   11
 0.01491641930409891    4    3   12    2
 -0.05705352237514132    4    3   12    3
 -0.005639140508280644    4    3   12    4
 0.05279695004423359    4    3   12    5
 -0.01307735561593753    4    3   12   12
 0.05595675841389662    4    3   13    2
 0.0470957491224622    4    3   13    3
 -0.09318896863545571    4    3   13    4
 0.09949587452112127    4    3   13    5
 -0.02124888429830957    4    3   13   12
 0.0220543713491596    4    3   13   13
 -0.006216872227252096    4    3   14    2
 0.0921977592728242    4    3   14    3
 0.03061869010798286    4    3   14    4
 0.01407375819121556    4    3   14    5
 0.001900425464340718    4    3   14   12
 -0.1168103938157653    4    3   14   13
 -0.01009142465790097    4    3   14   14
 0.05154174579070768    4    3   15    2
 -0.09501065867279855    4    3   15    3
 0.01337282295432922    4    3   15    4
 0.001106393702613586    4    3   15    5
 0.05143294165486562    4    3   15   12
 0.09224493105448718    4    3   15   13
 0.01466819924619197    4    3   15   14
 0.00111316208572892    4    3   15   15
 0.0001161065203610853    4    3   16    1
 -0.0457592225577081    4    3   16    6
 -0.02170769534977502    4    3   16    7
 0.03083376468384437    4    3   16    8
 -0.1405787398548808    4    3   16    9
 -0.05063076770159505    4    3   16   10
 0.0008751678746078285    4    3   16   11
 3.200643005612375e-07    4    3   16   16
 0.225759782450219    4    4    1    1
 0.1231535154979148    4    4    2    2
 0.0009450640150006798    4    4    3    2
 0.1150834908424073    4    4    3    3
 -0.04510144000963073    4    4    4    2
 -0.01069489792649892    4    4    4    3
 0.5440798899278519    4    4    4    4
 0.0436540520300848    4    4    5    2
 0.01461832325340046    4    4    5    3
 0.01229596945185107    4    4    5    4
 0.119131424792109    4    4    5    5
 -0.01295752650432192    4    4    6    1
 0.02405965526391991    4    4    6    6
 0.2367706915087636    4    4    7    1
 -0.03243083196955389    4    4    7    6
 0.5513543113708547    4    4    7    7
 -0.04564988557408047    4    4    8    1
 0.0001241887360217982    4    4    8    6
 -0.001741143004800042    4    4    8    7
 0.1364751892584974    4    4    8    8
 -0.01185744884443713    4    4    9    1
 2.373496207407232e-05    4    4    9    6
 -0.0003192825661425322    4    4    9    7
 0.002319383445705309    4    4    9    8
 0.2122586247555608    4    4    9    9
 0.04979593433049734    4    4   10    1
 -6.714945385572197e-05    4    4   10    6
 0.0007305163355636578    4    4   10    7
 -0.02061703474592571    4    4   10    8
 -0.01276426850519368    4    4   10    9
 0.3219288945893015    4    4   10   10
 -0.105790624809065    4    4   11    1
 0.01282518052990191    4    4   11    6
 -0.228579066514053    4    4   11    7
 -0.0004991681119760444    4    4   11    8
 -0.0002185478239034042    4    4   11    9
 0.001135083211198982    4    4   11   10
 0.1033810644672175    4    4   11   11
 0.06251351230858995    4    4   12    2
 -0.005639140508280644    4    4   12    3
 0.1322743991141077    4    4   12    4
 0.04088717606440419    4    4   12    5
 0.1262389531896651    4    4   12   12
 0.006894607370274015    4    4   13    2
 -0.09318896863545571    4    4   13    3
 -0.02991091718113269    4    4   13    4
 -0.01365674085389683    4    4   13    5
 -0.0009802540513743612    4    4   13   12
 0.1174561087690952    4    4   13   13
 0.129577540745444    4    4   14    2
 0.03061869010798287    4    4   14    3
 -0.2767312069262174    4    4   14    4
 0.02562004321273932    4    4   14    5
 -0.04603075995390451    4    4   14   12
 0.01030670586611979    4    4   14   13
 0.5411039116156487    4    4   14   14
 0.03903690111137218    4    4   15    2
 0.01337282295432923    4    4   15    3
 0.02427035333446869    4    4   15    4
 0.1156661275406094    4    4   15    5
 0.04362751932633377    4    4   15   12
 -0.01424256417600091    4    4   15   13
 0.01293757856640065    4    4   15   14
 0.1128027053653066    4    4   15   15
 0.001298743792204741    4    4   16    1
 -0.01266871591019612    4    4   16    6
 0.2335603366774088    4    4   16    7
 0.04448986745389193    4    4   16    8
 0.01171182876771307    4    4   16    9
 -0.04965163348903966    4    4   16   10
 -0.110044235428302    4    4   16   11
 0.2238324778444282    4    4   16   16
 -1.705878597045639e-05    5    1    2    1
 -6.89877192582857e-06    5    1    3    1
 4.42795227737744e-06    5    1    4    1
 0.2188038240379792    5    1    5    1
 0.002200399483692492    5    1    6    2
 -0.01045650810629901    5    1    6    3
 0.0001385018019244328    5    1    6    4
 -0.002737287141086202    5    1    6    5
 -0.005842503961242604    5    1    7    2
 -0.003272705788079855    5    1    7    3
 -0.005173768310401617    5    1    7    4
 0.01715312267896403    5    1    7    5
 -0.1307363056425936    5    1    8    2
 -0.02922671341581693    5    1    8    3
 0.07183125443121052    5    1    8    4
 -0.01324642565630991    5    1    8    5
 0.02783556588610847    5    1    9    2
 -0.1591662983471716    5    1    9    3
 -0.01426355783813636    5    1    9    4
 -0.002982253788257576    5    1    9    5
 0.07878089714044122    5    1   10    2