 &FCI NORB=  14,NELEC= 8,MS2=2,
  ORBSYM=1,1,1,1,1,1,1,1,1,1,1,1,1,1
  ISYM=1,
 &END
 0.3315420585714285    1    1    1    1
 2.157996004115148e-15    1    1    2    1
 0.3315420585714289    1    1    2    2
 0.3315420585714281    1    1    3    3
 1.084202172485504e-15    1    1    4    3
 0.3315420585714284    1    1    4    4
 1.956768080901838e-15    1    1    5    2
 0.3315420585714288    1    1    5    5
 1.377370439925585e-15    1    1    6    5
 0.3315420585714285    1    1    6    6
 1.408595462493167e-15    1    1    7    4
 0.3315420585714283    1    1    7    7
 1.443289932012704e-15    1    1    8    6
 0.3315420585714284    1    1    8    8
 1.186550857568136e-15    1    1    9    7
 0.3315420585714282    1    1    9    9
 1.518750403217695e-15    1    1   10    8
 0.3315420585714287    1    1   10   10
 -1.609823385706477e-15    1    1   11    9
 0.3315420585714279    1    1   11   11
 -2.185751579730777e-15    1    1   12   10
 0.3315420585714287    1    1   12   12
 -1.068589661201713e-15    1    1   13   11
 0.3315420585714284    1    1   13   13
 1.387778780781446e-15    1    1   14   12
 1.720845688168993e-15    1    1   14   13
 0.3315420585714286    1    1   14   14
 2.157996004115148e-15    2    1    1    1
 0.3315420585714289    2    1    2    1
 1.033895191682177e-15    2    1    2    2
 -1.927277781810233e-15    2    1    3    3
 -0.0269619453422414    2    1    4    2
 0.2328800588377034    2    1    4    3
 1.956768080901838e-15    2    1    5    1
 0.2328800588377041    2    1    5    2
 0.02696194534224122    2    1    5    3
 2.005340338229189e-15    2    1    6    2
 0.0002931648015723765    2    1    6    4
 0.2344354545611423    2    1    6    5
 0.2344354545611424    2    1    7    4
 -0.0002931648015723001    2    1    7    5
 1.15706055847653e-15    2    1    8    5
 0.2329169958217518    2    1    8    6
 -0.02664097142110917    2    1    8    7
 1.380839886877538e-15    2    1    9    4
 0.02664097142110911    2    1    9    6
 0.2329169958217519    2    1    9    7
 1.549108064047289e-15    2    1   10    6
 0.2344196761454508    2    1   10    8
 -0.002735641926912169    2    1   10    9
 1.873501354054952e-15    2    1   10   10
 -1.623701173514291e-15    2    1   11    7
 -0.002735641926912212    2    1   11    8
 -0.2344196761454505    2    1   11    9
 -1.216041156659742e-15    2    1   12    8
 -0.2119302148394849    2    1   12   10
 0.1002280017708637    2    1   12   11
 3.049643870767227e-15    2    1   12   12
 1.262878690511116e-15    2    1   13    9
 -0.1002280017708639    2    1   13   10
 -0.211930214839484    2    1   13   11
 2.321060010856968e-15    2    1   13   12
 1.193489751472043e-15    2    1   13   13
 -1.297573160030652e-15    2    1   14   10
 0.299037737558846    2    1   14   12
 0.1431662254774762    2    1   14   13
 -4.166805789296291e-15    2    1   14   14
 0.3315420585714289    2    2    1    1
 1.02695629777827e-15    2    2    2    1
 0.497313087857144    2    2    2    2
 0.1657710292857141    2    2    3    3
 -0.02696194534224142    2    2    4    1
 -1.387778780781446e-15    2    2    4    3
 0.3315420585714287    2    2    4    4
 0.2328800588377041    2    2    5    1
 0.3315420585714289    2    2    5    5
 1.987993103469421e-15    2    2    6    1
 0.1646470990549335    2    2    6    2
 0.019270882783108    2    2    6    3
 0.3315420585714289    2    2    6    6
 -0.01927088278310808    2    2    7    2
 0.1646470990549329    2    2    7    3
 0.3315420585714288    2    2    7    7
 1.484923295436147e-15    2    2    8    2
 -0.01863204085422047    2    2    8    4
 0.1647206156012412    2    2    8    5
 0.3315420585714288    2    2    8    8
 0.1647206156012414    2    2    9    4
 0.01863204085422052    2    2    9    5
 0.3315420585714286    2    2    9    9
 1.110223024625157e-15    2    2   10    5
 0.1644661519140733    2    2   10    6
 -0.02075858918669979    2    2   10    7
 0.3315420585714291    2    2   10   10
 -1.471045507628332e-15    2    2   11    4
 -0.02075858918669975    2    2   11    6
 -0.1644661519140733    2    2   11    7
 0.331542058571428    2    2   11   11
 -1.002670169114595e-15    2    2   12    6
 -0.1506740968770346    2    2   12    8
 -0.0691183816414656    2    2   12    9
 -2.532696274926138e-15    2    2   12   10
 0.4354911633454102    2    2   12   12
 1.110223024625157e-15    2    2   13    7
 -0.06911838164146587    2    2   13    8
 0.150674096877034    2    2   13    9
 -1.491862189340054e-15    2    2   13   10
 0.1291302356813971    2    2   13   12
 0.2275929537974475    2    2   13   13
 -0.2344329917041245    2    2   14   10
 -0.001113867830789553    2    2   14   11
 -2.164934898019055e-15    2    2   14   12
 0.3315420585714292    2    2   14   14
 0.331542058571428    3    1    3    1
 -1.923808334858279e-15    3    1    3    2
 1.077263278581597e-15    3    1    4    1
 0.2328800588377034    3    1    4    2
 0.02696194534224134    3    1    4    3
 0.02696194534224122    3    1    5    2
 -0.2328800588377033    3    1    5    3
 -0.2344354545611422    3    1    6    4
 0.0002931648015723582    3    1    6    5
 0.0002931648015723001    3    1    7    4
 0.234435454561142    3    1    7    5
 -0.0266409714211091    3    1    8    6
 -0.2329169958217513    3    1    8    7
 0.2329169958217513    3    1    9    6
 -0.02664097142110909    3    1    9    7
 -0.002735641926912172    3    1   10    8
 -0.2344196761454504    3    1   10    9
 -0.2344196761454503    3    1   11    8
 0.002735641926912256    3    1   11    9
 1.738192922928761e-15    3    1   11   10
 -0.1002280017708637    3    1   12   10
 -0.211930214839484    3    1   12   11
 -2.662800535624399e-15    3    1   12   12
 0.2119302148394843    3    1   13   10
 -0.1002280017708635    3    1   13   11
 1.346145417358002e-15    3    1   13   12
 3.275157922644212e-15    3    1   13   13
 2.164934898019055e-15    3    1   14   11
 -0.1431662254774758    3    1   14   12
 0.2990377375588454    3    1   14   13
 -1.923808334858279e-15    3    2    3    1
 0.1657710292857141    3    2    3    2
 0.2328800588377034    3    2    4    1
 -1.387778780781446e-15    3    2    4    2
 0.02696194534224123    3    2    5    1
 1.077263278581597e-15    3    2    5    3
 0.01927088278310799    3    2    6    2
 -0.1646470990549326    3    2    6    3
 0.1646470990549329    3    2    7    2
 0.01927088278310791    3    2    7    3
 -1.713906794265085e-15    3    2    7    5
 -0.1647206156012409    3    2    8    4
 -0.01863204085422049    3    2    8    5
 1.536964999715451e-15    3    2    8    7
 -0.01863204085422048    3    2    9    4
 0.1647206156012408    3    2    9    5
 -1.530026105811544e-15    3    2    9    6
 -0.02075858918669973    3    2   10    6
 -0.164466151914073    3    2   10    7
 -0.1644661519140729    3    2   11    6
 0.02075858918669976    3    2   11    7
 2.291569711765362e-15    3    2   11    8
 -0.06911838164146548    3    2   12    8
 0.1506740968770341    3    2   12    9
 1.39645239816133e-15    3    2   12   10
 -0.1291302356813965    3    2   12   12
 0.1506740968770338    3    2   13    8
 0.06911838164146557    3    2   13    9
 -1.471045507628332e-15    3    2   13   10
 0.1039491047739809    3    2   13   12
 0.1291302356813966    3    2   13   13
 0.00111386783078966    3    2   14   10
 -0.2344329917041236    3    2   14   11
 -2.550043509685906e-15    3    2   14   13
 0.331542058571428    3    3    1    1
 -1.927277781810233e-15    3    3    2    1
 0.1657710292857141    3    3    2    2
 0.4973130878571417    3    3    3    3
 0.02696194534224133    3    3    4    1
 -1.181346687140206e-15    3    3    4    3
 0.3315420585714284    3    3    4    4
 -0.2328800588377034    3    3    5    1
 1.084202172485504e-15    3    3    5    2
 0.3315420585714284    3    3    5    5
 -0.1646470990549326    3    3    6    2
 -0.01927088278310797    3    3    6    3
 0.3315420585714283    3    3    6    6
 0.01927088278310791    3    3    7    2
 -0.164647099054932    3    3    7    3
 0.3315420585714275    3    3    7    7
 0.01863204085422044    3    3    8    4
 -0.1647206156012407    3    3    8    5
 0.3315420585714282    3    3    8    8
 1.007874339542525e-15    3    3    9    3
 -0.1647206156012407    3    3    9    4
 -0.01863204085422034    3    3    9    5
 0.3315420585714275    3    3    9    9
 -0.1644661519140727    3    3   10    6
 0.02075858918669966    3    3   10    7
 0.3315420585714281    3    3   10   10
 0.02075858918669969    3    3   11    6
 0.1644661519140727    3    3   11    7
 0.3315420585714278    3    3   11   11
 0.1506740968770338    3    3   12    8
 0.06911838164146537    3    3   12    9
 1.415534356397075e-15    3    3   12   10
 0.2275929537974472    3    3   12   12
 0.06911838164146554    3    3   13    8
 -0.1506740968770337    3    3   13    9
 1.757274881164506e-15    3    3   13   11
 -0.1291302356813966    3    3   13   12
 0.4354911633454092    3    3   13   13
 -2.086438660731105e-15    3    3   14    8
 0.2344329917041234    3    3   14   10
 0.001113867830789539    3    3   14   11
 1.344410693882025e-15    3    3   14   12
 0.331542058571428    3    3   14   14
 -0.02696194534224142    4    1    2    2
 1.063385490773783e-15    4    1    3    1
 0.2328800588377034    4    1    3    2
 0.02696194534224135    4    1    3    3
 0.3315420585714284    4    1    4    1
 0.0002931648015723643    4    1    6    2
 -0.2344354545611422    4    1    6    3
 -1.316655118266397e-15    4    1    6    4
 1.415534356397075e-15    4    1    7    1
 0.2344354545611423    4    1    7    2
 0.000293164801572314    4    1    7    3
 -0.2283739851830449    4    1    8    4
 -0.05296594370446499    4    1    8    5
 1.366962099069724e-15    4    1    9    2
 -0.05296594370446501    4    1    9    4
 0.2283739851830452    4    1    9    5
 -0.0559119944521035    4    1   10    6
 -0.2276706331024673    4    1   10    7
 -1.77635683940025e-15    4    1   10    9
 -0.2276706331024668    4    1   11    6
 0.05591199445210351    4    1   11    7
 -0.07259305845414227    4    1   12    8
 0.2229132480701041    4    1   12    9
 -2.574329638349582e-15    4    1   12   11
 -0.1983128602515964    4    1   12   12
 1.047772979489991e-15    4    1   13    6
 0.2229132480701039    4    1   13    8
 0.0725930584541423    4    1   13    9
 -2.359223927328458e-15    4    1   13   11
 0.1250283078335501    4    1   13   12
 0.1983128602515965    4    1   13   13
 0.0396943129512406    4    1   14   10
 -0.3291572543953867    4    1   14   11
 -0.0269619453422414    4    2    2    1
 0.2328800588377034    4    2    3    1
 -1.373900992973631e-15    4    2    3    2
 0.3315420585714287    4    2    4    2
 0.0002931648015723713    4    2    6    1
 -0.1646947810497319    4    2    6    4
 -0.01885903617436402    4    2    6    5
 0.2344354545611424    4    2    7    1
 -0.01885903617436403    4    2    7    4
 0.1646947810497321    4    2    7    5
 -0.01863204085422049    4    2    8    2
 -0.1647206156012409    4    2    8    3
 -0.03765448750743332    4    2    8    6
 -0.1614378323720858    4    2    8    7
 1.394717674685353e-15    4    2    9    1
 0.1647206156012415    4    2    9    2
 -0.01863204085422047    4    2    9    3
 0.1614378323720856    4    2    9    6
 -0.03765448750743332    4    2    9    7
 -0.1610367626370288    4    2   10    4
 -0.03933440262455278    4    2   10    5
 -0.0209852317930842    4    2   10    8
 -0.1644373868590587    4    2   10    9
 -1.512678871051776e-15    4    2   11    2
 0.03933440262455278    4    2   11    4
 -0.1610367626370285    4    2   11    5
 -0.1644373868590582    4    2   11    8
 0.02098523179308432    4    2   11    9
 1.935951399190117e-15    4    2   11   10
 -0.03308639533908801    4    2   12    6
 0.1624356013745472    4    2   12    7
 0.03580268998159232    4    2   12   10
 -0.2968867391353054    4    2   12   11
 -1.56472057533108e-15    4    2   12   12
 0.1624356013745468    4    2   13    6
 0.03308639533908825    4    2   13    7
 1.082467449009528e-15    4    2   13    9
 0.01714076634089074    4    2   13   10
 -0.1421364212533665    4    2   13   11
 1.85268467234323e-15    4    2   13   13
 0.03078217109615553    4    2   14    8
 0.2324059513943164    4    2   14    9
 2.768618667658984e-15    4    2   14   11
 -0.1248806812821776    4    2   14   12
 0.1984058561217118    4    2   14   13
 1.063385490773783e-15    4    3    1    1
 0.2328800588377034    4    3    2    1
 -1.391248227733399e-15    4    3    2    2
 0.02696194534224133    4    3    3    1
 -1.181346687140206e-15    4    3    3    3
 0.3315420585714284    4    3    4    3
 -0.2344354545611422    4    3    6    1
 -0.01885903617436412    4    3    6    4
 0.164694781049732    4    3    6    5
 0.0002931648015722932    4    3    7    1
 0.1646947810497319    4    3    7    4
 0.01885903617436412    4    3    7    5
 -0.1647206156012409    4    3    8    2
 0.01863204085422044    4    3    8    3
 0.161437832372086    4    3    8    6
 -0.03765448750743342    4    3    8    7
 -0.01863204085422049    4    3    9    2
 -0.1647206156012407    4    3    9    3
 0.03765448750743328    4    3    9    6
 0.1614378323720855    4    3    9    7
 0.03933440262455277    4    3   10    4
 -0.1610367626370287    4    3   10    5
 0.1644373868590584    4    3   10    8
 -0.02098523179308425    4    3   10    9
 0.1610367626370284    4    3   11    4
 0.03933440262455271    4    3   11    5
 -1.07552855510562e-15    4    3   11    7
 -0.02098523179308429    4    3   11    8
 -0.1644373868590582    4    3   11    9
 -1.27675647831893e-15    4    3   11   11
 0.1624356013745469    4    3   12    6
 0.03308639533908807    4    3   12    7
 1.153157430655583e-15    4    3   12    8
 -0.017140766340891    4    3   12   10
 0.1421364212533663    4    3   12   11
 2.80331313717852e-15    4    3   12   12
 0.03308639533908816    4    3   13    6
 -0.1624356013745468    4    3   13    7
 0.03580268998159226    4    3   13   10
 -0.2968867391353052    4    3   13   11
 2.164934898019055e-15    4    3   13   13
 -1.132774429812855e-15    4    3   14    6
 0.2324059513943162    4    3   14    8
 -0.03078217109615542    4    3   14    9
 0.1984058561217117    4    3   14   12
 0.1248806812821777    4    3   14   13
 -2.811119392820416e-15    4    3   14   14
 0.3315420585714284    4    4    1    1
 0.3315420585714287    4    4    2    2
 0.3315420585714284    4    4    3    3
 0.4973130878571427    4    4    4    4
 0.1657710292857144    4    4    5    5
 -1.302777330458582e-15    4    4    6    1
 -0.1646947810497319    4    4    6    2
 -0.01885903617436413    4    4    6    3
 0.3315420585714287    4    4    6    6
 -0.01885903617436404    4    4    7    2
 0.1646947810497319    4    4    7    3
 0.3315420585714285    4    4    7    7
 -0.2283739851830449    4    4    8    1
 0.3315420585714285    4    4    8    8
 -0.05296594370446498    4    4    9    1
 1.054711873393899e-15    4    4    9    7
 0.3315420585714282    4    4    9    9
 -0.1610367626370288    4    4   10    2
 0.03933440262455277    4    4   10    3
 0.1705234835820419    4    4   10   10
 0.03933440262455274    4    4   11    2
 0.1610367626370284    4    4   11    3
 -0.03940878910639538    4    4   11   10
 0.4925606335608144    4    4   11   11
 0.01439200663740105    4    4   12    4
 0.1651451007308244    4    4   12    5
 1.719110964693016e-15    4    4   12    6
 0.1274848911732619    4    4   12    8
 -0.1059605430006219    4    4   12    9
 -1.294103713078698e-15    4    4   12   10
 0.3315420585714284    4    4   12   12
 -0.1651451007308241    4    4   13    4
 0.0143920066374012    4    4   13    5
 1.236857838371463e-15    4    4   13    6
 0.1059605430006221    4    4   13    8
 0.1274848911732618    4    4   13    9
 -1.419003803349028e-15    4    4   13   11
 0.3315420585714284    4    4   13   13
 0.2193388452925069    4    4   14    6
 -0.08276798443021346    4    4   14    7
 -1.140580685454751e-15    4    4   14    8
 1.144917494144693e-15    4    4   14   12
 0.3315420585714288    4    4   14   14
 1.93942084614207e-15    5    1    2    1
 0.2328800588377041    5    1    2    2
 0.02696194534224122    5    1    3    2
 -0.2328800588377034    5    1    3    3
 0.3315420585714288    5    1    5    1
 1.35308431126191e-15    5    1    6    1
 0.2344354545611423    5    1    6    2
 0.0002931648015723643    5    1    6    3
 -0.0002931648015723348    5    1    7    2
 0.234435454561142    5    1    7    3
 1.165734175856414e-15    5    1    8    2
 -0.05296594370446498    5    1    8    4
 0.2283739851830452    5    1    8    5
 0.2283739851830451    5    1    9    4
 0.05296594370446492    5    1    9    5
 0.2276706331024672    5    1   10    6
 -0.05591199445210353    5    1   10    7
 -0.05591199445210344    5    1   11    6
 -0.227670633102467    5    1   11    7
 1.103284130721249e-15    5    1   11    9
 -0.2229132480701041    5    1   12    8
 -0.07259305845414227    5    1   12    9
 -2.449429548079252e-15    5    1   12   10
 0.1250283078335505    5    1   12   12
 -0.07259305845414235    5    1   13    8
 0.222913248070104    5    1   13    9
 -2.130240428499519e-15    5    1   13   10
 0.1983128602515968    5    1   13   12
 -0.1250283078335505    5    1   13   13
 -0.3291572543953872    5    1   14   10
 -0.03969431295124048    5    1   14   11
 -2.331468351712829e-15    5    1   14   12
 1.949829186997931e-15    5    2    1    1
 0.2328800588377041    5    2    2    1
 0.02696194534224122    5    2    3    1
 1.082467449009528e-15    5    2    3    3
 0.3315420585714289    5    2    5    2
 0.2344354545611423    5    2    6    1
 -0.01885903617436402    5    2    6    4
 0.1646947810497322    5    2    6    5
 -0.0002931648015723209    5    2    7    1
 -1.710437347313132e-15    5    2    7    3
 0.1646947810497321    5    2    7    4
 0.01885903617436409    5    2    7    5
 1.193489751472043e-15    5    2    8    1
 0.1647206156012412    5    2    8    2
 -0.01863204085422049    5    2    8    3
 -1.382574610353515e-15    5    2    8    5
 0.161437832372086    5    2    8    6
 -0.03765448750743337    5    2    8    7
 0.0186320408542205    5    2    9    2
 0.1647206156012408    5    2    9    3
 0.03765448750743332    5    2    9    6
 0.161437832372086    5    2    9    7
 1.082467449009528e-15    5    2   10    2
 -0.03933440262455278    5    2   10    4
 0.1610367626370288    5    2   10    5
 0.1644373868590587    5    2   10    8
 -0.0209852317930843    5    2   10    9
 2.411265631607762e-15    5    2   10   10
 -0.1610367626370286    5    2   11    4
 -0.03933440262455275    5    2   11    5
 1.561251128379126e-15    5    2   11    7
 -0.02098523179308424    5    2   11    8
 -0.1644373868590584    5    2   11    9
 -0.1624356013745472    5    2   12    6
 -0.03308639533908796    5    2   12    7
 1.103284130721249e-15    5    2   12    9
 -0.2968867391353059    5    2   12   10
 -0.03580268998159219    5    2   12   11
 -0.03308639533908825    5    2   13    6
 0.1624356013745469    5    2   13    7
 -1.110223024625157e-15    5    2   13    9
 -0.1421364212533667    5    2   13   10
 -0.0171407663408908    5    2   13   11
 1.176142516712275e-15    5    2   13   13
 -0.2324059513943164    5    2   14    8
 0.0307821710961555    5    2   14    9
 2.921274333544943e-15    5    2   14   10
 0.1984058561217124    5    2   14   12
 0.1248806812821778    5    2   14   13
 -3.316791286067655e-15    5    2   14   14
 0.02696194534224122    5    3    2    1
 -0.2328800588377034    5    3    3    1
 1.084202172485504e-15    5    3    3    2
 0.3315420585714284    5    3    5    3
 0.0002931648015723574    5    3    6    1
 0.164694781049732    5    3    6    4
 0.01885903617436403    5    3    6    5
 0.234435454561142    5    3    7    1
 -1.710437347313132e-15    5    3    7    2
 0.01885903617436411    5    3    7    4
 -0.1646947810497319    5    3    7    5
 -0.01863204085422048    5    3    8    2
 -0.1647206156012407    5    3    8    3
 0.0376544875074333    5    3    8    6
 0.1614378323720856    5    3    8    7
 0.1647206156012408    5    3    9    2
 -0.01863204085422035    5    3    9    3
 -0.1614378323720856    5    3    9    6
 0.03765448750743328    5    3    9    7
 -0.1610367626370287    5    3   10    4
 -0.03933440262455271    5    3   10    5
 0.02098523179308429    5    3   10    8
 0.1644373868590582    5    3   10    9
 0.03933440262455271    5    3   11    4
 -0.1610367626370287    5    3   11    5
 1.516148318003729e-15    5    3   11    6
 0.1644373868590583    5    3   11    8
 -0.02098523179308417    5    3   11    9
 -1.19522447494802e-15    5    3   11   10
 -0.03308639533908813    5    3   12    6
 0.1624356013745466    5    3   12    7
 0.1421364212533666    5    3   12   10
 0.01714076634089079    5    3   12   11
 2.126770981547565e-15    5    3   12   12
 0.1624356013745469    5    3   13    6
 0.03308639533908804    5    3   13    7
 -0.2968867391353058    5    3   13   10
 -0.03580268998159226    5    3   13   11
 -1.767683222020366e-15    5    3   13   12
 -2.074729277268261e-15    5    3   13   13
 -1.464106613724425e-15    5    3   14    7
 0.03078217109615539    5    3   14    8
 0.2324059513943158    5    3   14    9
 0.1248806812821775    5    3   14   12
 -0.1984058561217118    5    3   14   13
 0.1657710292857144    5    4    5    4
 -0.01885903617436402    5    4    6    2
 0.164694781049732    5    4    6    3
 0.1646947810497321    5    4    7    2
 0.01885903617436412    5    4    7    3
 -0.05296594370446499    5    4    8    1
 0.2283739851830452    5    4    9    1
 -0.03933440262455278    5    4   10    2
 -0.1610367626370287    5    4   10    3
 -0.03940878910639529    5    4   10   10
 -0.1610367626370286    5    4   11    2
 0.03933440262455271    5    4   11    3
 1.273287031366976e-15    5    4   11    5
 0.1610185749893868    5    4   11   10
 0.03940878910639518    5    4   11   11
 0.1651451007308244    5    4   12    4
 -0.01439200663740128    5    4   12    5
 0.105960543000622    5    4   12    8
 0.1274848911732619    5    4   12    9
 1.235123114895487e-15    5    4   12   11
 0.0143920066374012    5    4   13    4
 0.1651451007308246    5    4   13    5
 -0.1274848911732621    5    4   13    8
 0.105960543000622    5    4   13    9
 0.08276798443021344    5    4   14    6
 0.2193388452925068    5    4   14    7
 -1.540434446667405e-15    5    4   14    9
 0.3315420585714288    5    5    1    1
 0.3315420585714289    5    5    2    2
 0.3315420585714284    5    5    3    3
 0.1657710292857144    5    5    4    4
 0.4973130878571433    5    5    5    5
 0.1646947810497321    5    5    6    2
 0.01885903617436403    5    5    6    3
 -1.266348137463069e-15    5    5    6    5
 0.3315420585714287    5    5    6    6
 0.01885903617436408    5    5    7    2
 -0.1646947810497319    5    5    7    3
 0.3315420585714283    5    5    7    7
 0.2283739851830452    5    5    8    1
 -1.413799632921098e-15    5    5    8    2
 0.3315420585714284    5    5    8    8
 0.05296594370446492    5    5    9    1
 -1.318389841742373e-15    5    5    9    7
 0.3315420585714282    5    5    9    9
 0.1610367626370288    5    5   10    2
 -0.03933440262455268    5    5   10    3
 0.4925606335608156    5    5   10   10
 -0.03933440262455275    5    5   11    2
 -0.1610367626370287    5    5   11    3
 1.280225925270884e-15    5    5   11    4
 0.03940878910639533    5    5   11   10
 0.1705234835820415    5    5   11   11
 -0.01439200663740129    5    5   12    4
 -0.1651451007308244    5    5   12    5
 -0.1274848911732622    5    5   12    8
 0.1059605430006221    5    5   12    9
 1.946359740045978e-15    5    5   12   10
 0.3315420585714287    5    5   12   12
 0.1651451007308246    5    5   13    4
 -0.01439200663740118    5    5   13    5
 -0.1059605430006222    5    5   13    8
 -0.1274848911732621    5    5   13    9
 0.331542058571429    5    5   13   13
 1.020017403874363e-15    5    5   14    5
 -0.2193388452925069    5    5   14    6
 0.08276798443021342    5    5   14    7
 2.288100264813409e-15    5    5   14    8
 -1.273287031366976e-15    5    5   14   12
 0.3315420585714287    5    5   14   14
 1.991462550421375e-15    6    1    2    2
 0.000293164801572366    6    1    4    2
 -0.2344354545611422    6    1    4    3
 -1.301042606982605e-15    6    1    4    4
 1.361757928641794e-15    6    1    5    1
 0.2344354545611423    6    1    5    2
 0.0002931648015723652    6    1    5    3
 0.3315420585714284    6    1    6    1
 1.429412144204889e-15    6    1    8    1
 0.2329169958217518    6    1    8    2
 -0.0266409714211091    6    1    8    3
 0.02664097142110911    6    1    9    2
 0.2329169958217513    6    1    9    3
 1.547373340571312e-15    6    1   10    2
 -0.05591199445210351    6    1   10    4
 0.2276706331024672    6    1   10    5
 1.545638617095335e-15    6    1   10    6
 1.77115266897232e-15    6    1   10   10
 -0.2276706331024668    6    1   11    4
 -0.05591199445210344    6    1   11    5
 -0.2297769638989706    6    1   12    6
 -0.04650392631016771    6    1   12    7
 -2.31715688303602e-15    6    1   12    8
 -0.1976527777254914    6    1   12   10
 -0.1260692181235678    6    1   12   11
 -1.209102262755835e-15    6    1   12   12
 1.056446596869876e-15    6    1   13    4
 -0.046503926310168    6    1   13    6
 0.2297769638989702    6    1   13    7
 -2.157562323246154e-15    6    1   13    8
 -0.1260692181235679    6    1   13   10
 0.1976527777254912    6    1   13   11
 -1.731254029024853e-15    6    1   13   13
 -0.3286169534175321    6    1   14    8
 0.04394353795906942    6    1   14    9
 1.987993103469421e-15    6    2    2    1
 0.1646470990549335    6    2    2    2
 0.01927088278310799    6    2    3    2
 -0.1646470990549326    6    2    3    3
 0.000293164801572366    6    2    4    1
 -0.1646947810497319    6    2    4    4
 0.2344354545611423    6    2    5    1
 -0.01885903617436402    6    2    5    4
 0.1646947810497321    6    2    5    5
 0.3315420585714289    6    2    6    2
 0.2329169958217518    6    2    8    1
 -0.03765448750743334    6    2    8    4
 0.161437832372086    6    2    8    5
 0.02664097142110911    6    2    9    1
 -1.530026105811544e-15    6    2    9    3
 0.1614378323720856    6    2    9    4
 0.03765448750743332    6    2    9    5
 1.505739977147869e-15    6    2   10    1
 0.1644661519140733    6    2   10    2
 -0.02075858918669973    6    2   10    3
 0.1609378827010732    6    2   10    6
 -0.03973703640359687    6    2   10    7
 1.902124291408569e-15    6    2   10    8
 0.1644565449682692    6    2   10   10
 -0.02075858918669976    6    2   11    2
 -0.1644661519140729    6    2   11    3
 -0.03973703640359679    6    2   11    6
 -0.1609378827010728    6    2   11    7
 0.02083456185152054    6    2   11   10
 -0.1644565449682688    6    2   11   11
 -0.03308639533908801    6    2   12    4
 -0.1624356013745472    6    2   12    5
 -1.117161918529064e-15    6    2   12    6
 -0.296399409163613    6    2   12    8
 0.03963532176953143    6    2   12    9
 0.08823293779284308    6    2   12   12
 0.1624356013745468    6    2   13    4
 -0.03308639533908826    6    2   13    5
 -1.21690851839773e-15    6    2   13    6
 -0.1419031089190143    6    2   13    8
 0.01897566327130333    6    2   13    9
 0.1403388144416559    6    2   13   12
 -0.08823293779284255    6    2   13   13
 -0.2273309617246052    6    2   14    6
 0.05727741389288258    6    2   14    7
 3.14592102368394e-15    6    2   14    8
 -0.2327140451300474    6    2   14   10
 -0.02835915196370643    6    2   14   11
 -1.635844237846129e-15    6    2   14   12
 0.01927088278310799    6    3    2    2
 -0.1646470990549326    6    3    3    2
 -0.01927088278310799    6    3    3    3
 -0.2344354545611422    6    3    4    1
 -0.01885903617436414    6    3    4    4
 0.0002931648015723721    6    3    5    1
 0.164694781049732    6    3    5    4
 0.01885903617436401    6    3    5    5
 0.3315420585714283    6    3    6    3
 -0.02664097142110908    6    3    8    1
 0.161437832372086    6    3    8    4
 0.03765448750743332    6    3    8    5
 0.2329169958217513    6    3    9    1
 -1.536964999715451e-15    6    3    9    2
 0.03765448750743329    6    3    9    4
 -0.1614378323720856    6    3    9    5
 -0.02075858918669973    6    3   10    2
 -0.1644661519140727    6    3   10    3
 0.0397370364035967    6    3   10    6
 0.1609378827010728    6    3   10    7
 -0.02083456185152048    6    3   10   10
 -0.1644661519140729    6    3   11    2
 0.02075858918669967    6    3   11    3
 1.52135248843166e-15    6    3   11    5
 0.1609378827010732    6    3   11    6
 -0.03973703640359677    6    3   11    7
 -1.312318309576455e-15    6    3   11    8
 0.1644565449682689    6    3   11   10
 0.0208345618515205    6    3   11   11
 0.1624356013745469    6    3   12    4
 -0.03308639533908811    6    3   12    5
 1.082901129878522e-15    6    3   12    6
 0.1419031089190141    6    3   12    8
 -0.01897566327130352    6    3   12    9
 1.570792107496999e-15    6    3   12   11
 0.1403388144416556    6    3   12   12
 0.03308639533908818    6    3   13    4
 0.1624356013745469    6    3   13    5
 -0.2963994091636127    6    3   13    8
 0.03963532176953117    6    3   13    9
 -0.08823293779284261    6    3   13   12
 -0.1403388144416556    6    3   13   13
 -1.131907068074867e-15    6    3   14    4
 0.05727741389288229    6    3   14    6
 0.2273309617246044    6    3   14    7
 -0.0283591519637065    6    3   14   10
 0.2327140451300471    6    3   14   11
 0.0002931648015723765    6    4    2    1
 -0.2344354545611422    6    4    3    1
 -1.307981500886513e-15    6    4    4    1
 -0.1646947810497319    6    4    4    2
 -0.01885903617436413    6    4    4    3
 -0.01885903617436401    6    4    5    2
 0.164694781049732    6    4    5    3