 &FCI NORB=  16,NELEC=10,MS2=0,
  ORBSYM=1,1,1,1,1,1,1,1,1,1,1,1,1,1,1,1
  ISYM=1,
 &END
 0.625    1    1    1    1
 0.6250000000000002    1    1    2    2
 0.6249999999999996    1    1    3    3
 0.6250000000000011    1    1    4    4
 0.6249999999999997    1    1    5    5
 0.6250000000000009    1    1    6    6
 0.6250000000000001    1    1    7    7
 0.6250000000000001    1    1    8    8
 0.625    1    1    9    9
 0.6249999999999998    1    1   10   10
 0.6249999999999998    1    1   11   11
 0.6249999999999998    1    1   12   12
 0.6250000000000001    1    1   13   13
 0.6249999999999996    1    1   14   14
 0.6250000000000004    1    1   15   15
 0.6249999999999999    1    1   16   16
 0.6250000000000003    2    1    2    1
 -1.310583586100478e-15    2    1    3    2
 -1.024571052998802e-15    2    1    5    5
 -0.2682173615781424    2    1    6    2
 0.245661286951783    2    1    6    3
 -0.08171659258692671    2    1    6    4
 -0.0470313717995248    2    1    6    5
 -0.2084355277233082    2    1    7    2
 0.2561885817270809    2    1    7    3
 -0.05679207522133727    2    1    7    4
 0.4231159710726993    2    1    7    5
 0.2931252948561349    2    1    8    2
 -0.3380817235653593    2    1    8    3
 -0.1855302371157222    2    1    8    4
 0.238742182918323    2    1    8    5
 -0.1823079499438547    2    1    9    2
 0.005041656996299437    2    1    9    3
 -0.08058192499777832    2    1    9    4
 0.07721578637551126    2    1    9    5
 0.06213942814547206    2    1   10    2
 0.05709423445942343    2    1   10    3
 0.458858821451694    2    1   10    4
 -0.05074281340059185    2    1   10    5
 -0.1038236552238861    2    1   11    2
 0.01818611890525654    2    1   11    3
 -0.2983347257905302    2    1   11    4
 -0.2857370779236649    2    1   11    5
 0.1503122396189157    2    1   12    6
 0.1189109193891291    2    1   12    7
 0.01017150797322049    2    1   12    8
 -0.1758625012241335    2    1   12    9
 0.06571156772925832    2    1   12   10
 0.0438294860391451    2    1   12   11
 -1.318389841742373e-15    2    1   13    2
 0.3382478987602858    2    1   13    6
 0.3225701619806585    2    1   13    7
 -0.3293815021627525    2    1   13    8
 -0.2821360538577313    2    1   13    9
 0.03084225995006439    2    1   13   10
 0.04158171332771225    2    1   13   11
 -0.1780715531143696    2    1   14    6
 -0.07165759904711003    2    1   14    7
 -0.2653370277640461    2    1   14    8
 -0.06516740277171798    2    1   14    9
 -0.4677449334477005    2    1   14   10
 -0.02212563239543584    2    1   14   11
 0.246247926528051    2    1   15    6
 -0.3514847839394897    2    1   15    7
 -0.1177079542220844    2    1   15    8
 -0.07903869015879762    2    1   15    9
 0.1023922502945365    2    1   15   10
 -0.378284576247738    2    1   15   11
 -1.734723475976807e-15    2    1   15   15
 0.5563590110071848    2    1   16   12
 0.2474887485094246    2    1   16   13
 -0.04508585682176894    2    1   16   14
 0.1334400080447876    2    1   16   15
 0.6250000000000004    2    2    1    1
 1.023696334849209    2    2    2    2
 -1.296705798292663e-15    2    2    3    1
 -0.348238735637308    2    2    3    2
 0.3902355423322805    2    2    3    3
 0.08567974655357534    2    2    4    2
 0.07754667799370528    2    2    4    3
 0.560596613550521    2    2    4    4
 0.01094350278032326    2    2    5    2
 0.01348007915591943    2    2    5    3
 -0.01398556141548202    2    2    5    4
 0.5254715092679919    2    2    5    5
 -0.2682173615781424    2    2    6    1
 -1.894318035766673e-15    2    2    6    2
 1.110873545928648e-15    2    2    6    3
 0.592852003422463    2    2    6    6
 -0.2084355277233082    2    2    7    1
 0.2508368017959429    2    2    7    6
 0.8611169670427978    2    2    7    7
 0.2931252948561349    2    2    8    1
 1.259409243559162e-15    2    2    8    2
 -0.398979871932551    2    2    8    6
 -0.1292980751722549    2    2    8    7
 0.7751928374615822    2    2    8    8
 -0.1823079499438547    2    2    9    1
 -0.1226157655954434    2    2    9    6
 -0.004690066972022879    2    2    9    7
 0.153564645216566    2    2    9    8
 0.2667833733906982    2    2    9    9
 0.06213942814547205    2    2   10    1
 0.1457033968428006    2    2   10    6
 -0.04890245819391278    2    2   10    7
 0.006772270280611749    2    2   10    8
 -0.07968588261050011    2    2   10    9
 0.7276576993491772    2    2   10   10
 -0.1038236552238861    2    2   11    1
 0.002517799668406262    2    2   11    6
 0.1208228929552826    2    2   11    7
 -0.01968271583040645    2    2   11    8
 0.05263658096188804    2    2   11    9
 -0.2432469052543274    2    2   11   10
 0.5263971193332834    2    2   11   11
 -0.04884193987264288    2    2   12    2
 0.1081806696997089    2    2   12    3
 0.01651918319692479    2    2   12    4
 0.02597540144765868    2    2   12    5
 1.228184220991579e-15    2    2   12    7
 0.6136624610388244    2    2   12   12
 -1.290634266126744e-15    2    2   13    1
 -0.3287585445356342    2    2   13    2
 0.4450972230065399    2    2   13    3
 0.06341179823559696    2    2   13    4
 0.01073159717270722    2    2   13    5
 1.254205073131232e-15    2    2   13    6
 1.214306433183765e-15    2    2   13    7
 0.4432136848202253    2    2   13   12
 0.7527792668643789    2    2   13   13
 -0.04794692148612657    2    2   14    2
 0.0002655745977119886    2    2   14    3
 -0.2158843258826424    2    2   14    4
 -0.09642689796438    2    2   14    5
 -0.1333048173935147    2    2   14   12
 -0.006509318673074801    2    2   14   13
 0.5324838705226794    2    2   14   14
 0.05241221337795994    2    2   15    2
 0.01409615228959573    2    2   15    3
 0.300616793411682    2    2   15    4
 -0.1465773334776197    2    2   15    5
 0.1156964168314092    2    2   15   12
 0.08230082422635823    2    2   15   13
 -0.0445121568918495    2    2   15   14
 0.6010744015741178    2    2   15   15
 -1.360023205165817e-15    2    2   16    2
 0.3331647231543046    2    2   16    6
 0.1637092144939041    2    2   16    7
 -0.1273651340016452    2    2   16    8
 -0.2804431702284377    2    2   16    9
 0.126310782322213    2    2   16   10
 -0.02368769296864053    2    2   16   11
 0.6250000000000001    2    2   16   16
 -1.338339161716107e-15    3    1    2    2
 0.6249999999999994    3    1    3    1
 2.556921417217611e-15    3    1    3    3
 -1.226395287406978e-15    3    1    5    5
 0.245661286951783    3    1    6    2
 -0.1268086595023029    3    1    6    3
 -0.342487341968883    3    1    6    4
 -0.003872204524453646    3    1    6    5
 0.2561885817270809    3    1    7    2
 -0.03862765839225226    3    1    7    3
 0.09412266997079047    3    1    7    4
 0.02978281756832133    3    1    7    5
 -0.3380817235653593    3    1    8    2
 -0.1997916146057208    3    1    8    3
 -0.161043939052194    3    1    8    4
 -0.04268829574290726    3    1    8    5
 0.005041656996299458    3    1    9    2
 0.7217394549271905    3    1    9    3
 -0.1207389566402283    3    1    9    4
 -0.02303851494360046    3    1    9    5
 1.012211148232467e-15    3    1    9    9
 0.05709423445942344    3    1   10    2
 0.0007563333507228077    3    1   10    3
 0.02932369035836779    3    1   10    4
 -0.2347052056246291    3    1   10    5
 0.01818611890525656    3    1   11    2
 -0.01256333883395207    3    1   11    3
 0.003887803773967237    3    1   11    4
 -0.3514768991456303    3    1   11    5
 -0.2774097732871578    3    1   12    6
 -0.2116447301768416    3    1   12    7
 0.1002413725327819    3    1   12    8
 0.4349797034572816    3    1   12    9
 0.01145777795546788    3    1   12   10
 0.0163978389249803    3    1   12   11
 -1.76594849854439e-15    3    1   13    3
 -0.1616934471059851    3    1   13    6
 -0.1225315192872541    3    1   13    7
 0.3477188554967715    3    1   13    8
 -0.5744698814814009    3    1   13    9
 -0.02423136676520228    3    1   13   10
 -0.03974968469033965    3    1   13   11
 -0.2164538600441615    3    1   14    6
 0.1595181239772183    3    1   14    7
 -0.1552861069164538    3    1   14    8
 0.02778594885436357    3    1   14    9
 -0.06673100931111386    3    1   14   10
 -0.2898092652859619    3    1   14   11
 0.1754413116331603    3    1   15    6
 -0.03337326266235956    3    1   15    7
 0.1933716905563121    3    1   15    8
 0.09541532600606042    3    1   15    9
 -0.2106088021757359    3    1   15   10
 -0.2187389418244449    3    1   15   11
 1.114559833315099e-15    3    1   16    9
 0.2549691034818884    3    1   16   12
 -0.5680911791557209    3    1   16   13
 0.05306515076262483    3    1   16   14
 0.008500482906514249    3    1   16   15
 -1.340941246930072e-15    3    2    2    1
 -0.348238735637308    3    2    2    2
 0.3902355423322805    3    2    3    2
 0.04792226653296979    3    2    3    3
 0.07754667799370527    3    2    4    2
 -0.007104835314062604    3    2    4    3
 0.1192719067346459    3    2    4    4
 0.01348007915591943    3    2    5    2
 0.001923892220054055    3    2    5    3
 0.00890026103233631    3    2    5    4
 0.1810445623696914    3    2    5    5
 0.245661286951783    3    2    6    1
 1.138845961978774e-15    3    2    6    2
 -0.1336284893227582    3    2    6    6
 0.2561885817270809    3    2    7    1
 1.011343786494479e-15    3    2    7    2
 -0.3154851448274963    3    2    7    6
 -0.1926895623201943    3    2    7    7
 -0.3380817235653593    3    2    8    1
 0.4235489077029973    3    2    8    6
 0.1241785214301958    3    2    8    7
 -0.171101077231268    3    2    8    8
 0.005041656996299455    3    2    9    1
 0.1224297195503089    3    2    9    6
 0.01895757325794937    3    2    9    7
 -0.08094120266286267    3    2    9    8
 0.1390398006427099    3    2    9    9
 0.05709423445942344    3    2   10    1
 -0.08470182140025607    3    2   10    6
 -0.06452138383561687    3    2   10    7
 0.008960069198834164    3    2   10    8
 -0.008118955152658588    3    2   10    9
 0.06177594010708015    3    2   10   10
 0.01818611890525654    3    2   11    1
 -0.007982547998141442    3    2   11    6
 -0.1106675799571942    3    2   11    7
 0.06535779749306    3    2   11    8
 0.02187895169014073    3    2   11    9
 0.2128685779199061    3    2   11   10
 0.2966033881244307    3    2   11   11
 0.1081806696997088    3    2   12    2
 -0.2449826825544721    3    2   12    3
 -0.02975219981561903    3    2   12    4
 -0.03880164776531857    3    2   12    5
 1.07552855510562e-15    3    2   12    9
 0.001574414686444551    3    2   12   12
 0.4450972230065399    3    2   13    2
 -0.309876848572862    3    2   13    3
 0.00430611020941334    3    2   13    4
 0.01120666126030179    3    2   13    5
 -0.4059319046047428    3    2   13   12
 -0.3034677749736994    3    2   13   13
 0.0002655745977119895    3    2   14    2
 0.05000225338113566    3    2   14    3
 0.1456636559892652    3    2   14    4
 0.206307727071799    3    2   14    5
 -0.01215541379631418    3    2   14   12
 0.03291808604374776    3    2   14   13
 0.1627821155151306    3    2   14   14
 0.01409615228959571    3    2   15    2
 -0.07415624680119376    3    2   15    3
 -0.1398215361778959    3    2   15    4
 0.1669604034664754    3    2   15    5
 -0.01777263163151633    3    2   15   12
 -0.08883702834561803    3    2   15   13
 0.02654622151165881    3    2   15   14
 0.1391112447721243    3    2   15   15
 -0.2578989411168293    3    2   16    6
 -0.2555535437819056    3    2   16    7
 0.2794102758250883    3    2   16    8
 0.1780952226522281    3    2   16    9
 -0.03954778903841434    3    2   16   10
 -0.02693878621945052    3    2   16   11
 0.6249999999999994    3    3    1    1
 0.3902355423322805    3    3    2    2
 2.549985911445493e-15    3    3    3    1
 0.04792226653296978    3    3    3    2
 1.550688754729268    3    3    3    3
 -0.007104835314062608    3    3    4    2
 -0.02431821291273341    3    3    4    3
 0.2680715139228427    3    3    4    4
 0.001923892220054055    3    3    5    2
 -0.007232392196377575    3    3    5    3
 0.008858977453475849    3    3    5    4
 0.2910041890156072    3    3    5    5
 -0.1268086595023029    3    3    6    1
 0.5991605726659133    3    3    6    6
 -0.03862765839225224    3    3    7    1
 0.1177988603891936    3    3    7    6
 0.261180880309364    3    3    7    7
 -0.1997916146057208    3    3    8    1
 -1.752409735673714e-15    3    3    8    3
 -0.03022658009600779    3    3    8    6
 -0.3045934861545429    3    3    8    7
 0.5990984046714887    3    3    8    8
 0.7217394549271905    3    3    9    1
 5.613117934864797e-15    3    3    9    3
 -0.1054363042159414    3    3    9    6
 -0.09449658867896246    3    3    9    7
 -0.4279830834162008    3    3    9    8
 1.704225693543784    3    3    9    9
 0.0007563333507228077    3    3   10    1
 -0.02715196643479834    3    3   10    6
 0.0116728681456955    3    3   10    7
 -0.08287584773165152    3    3   10    8
 -0.0005518846474517974    3    3   10    9
 0.1739748335691882    3    3   10   10
 -0.01256333883395207    3    3   11    1
 0.05171689990233264    3    3   11    6
 -0.06797983778097032    3    3   11    7
 0.002027133610462939    3    3   11    8
 -0.000485794924332066    3    3   11    9
 0.2403119462365038    3    3   11   10
 0.4123596152402613    3    3   11   11
 -0.2449826825544721    3    3   12    2
 0.539312935237182    3    3   12    3
 0.01092198987047999    3    3   12    4
 -0.04477163275616314    3    3   12    5
 1.598601893221252e-15    3    3   12    9
 0.6182636205461525    3    3   12   12
 -1.661865089985781e-15    3    3   13    1
 -0.309876848572862    3    3   13    2
 -0.733392950379855    3    3   13    3
 0.09014840485034337    3    3   13    4
 0.02404241225384423    3    3   13    5
 -2.927101920222053e-15    3    3   13    9
 -0.4640217211393963    3    3   13   12
 1.307164121049483    3    3   13   13
 0.05000225338113566    3    3   14    2
 0.1215295855240469    3    3   14    3
 0.1723463964435488    3    3   14    4
 0.2065618915658416    3    3   14    5
 0.04930978625984006    3    3   14   12
 -0.1144223344379636    3    3   14   13
 0.3015079798959411    3    3   14   14
 -0.07415624680119376    3    3   15    2
 0.018978268046944    3    3   15    3
 -0.1806648577972949    3    3   15    4
 0.1826982999245403    3    3   15    5
 0.02471859239690748    3    3   15   12
 -0.004613741156636869    3    3   15   13
 0.01155594936708704    3    3   15   14
 0.2730642785084216    3    3   15   15
 2.6956857427686e-15    3    3   16    3
 0.01780940638446479    3    3   16    6
 0.03812379618433399    3    3   16    7
 -0.2857185434752738    3    3   16    8
 0.7032691188740969    3    3   16    9
 0.01816901999824953    3    3   16   10
 0.01523876567323668    3    3   16   11
 0.624999999999999    3    3   16   16
 0.625000000000001    4    1    4    1
 -0.08171659258692665    4    1    6    2
 -0.342487341968883    4    1    6    3
 0.5409166523783923    4    1    6    4
 -0.05590583270381481    4    1    6    5
 -0.05679207522133729    4    1    7    2
 0.09412266997079047    4    1    7    3
 -0.1129670277785375    4    1    7    4
 -0.19832666950573    4    1    7    5
 -0.1855302371157222    4    1    8    2
 -0.161043939052194    4    1    8    3
 0.08236212941702485    4    1    8    4
 -0.2745963868650562    4    1    8    5
 -0.08058192499777832    4    1    9    2
 -0.1207389566402283    4    1    9    3
 -0.2003292645982113    4    1    9    4
 -0.09166298064877162    4    1    9    5
 0.458858821451694    4    1   10    2
 0.02932369035836779    4    1   10    3
 0.04517065682101404    4    1   10    4
 -0.3309112798079679    4    1   10    5
 1.137978600240785e-15    4    1   10    6
 -0.2983347257905302    4    1   11    2
 0.003887803773967245    4    1   11    3
 -0.1715780369907403    4    1   11    4
 -0.1855904570271104    4    1   11    5
 0.4206963224436453    4    1   12    6
 -0.2786538008239019    4    1   12    7
 0.1826421591552784    4    1   12    8
 0.1157949915032516    4    1   12    9
 0.2401933267190333    4    1   12   10
 -0.1707609875318464    4    1   12   11
 -0.164684222502077    4    1   13    6
 -0.0008544246709351784    4    1   13    7
 -0.1002683651347781    4    1   13    8
 0.01859300792730576    4    1   13    9
 0.2102110208639242    4    1   13   10
 -0.1444908521250657    4    1   13   11
 0.2374517521036267    4    1   14    6
 0.3767161955819718    4    1   14    7
 0.155546284222828    4    1   14    8
 0.2513862749315964    4    1   14    9
 -0.1642661744554705    4    1   14   10
 -0.1707182232125236    4    1   14   11
 -0.3098251246997834    4    1   15    6
 0.06516350932814759    4    1   15    7
 0.113281546685462    4    1   15    8
 -0.1819502849121659    4    1   15    9
 0.2993884268945339    4    1   15   10
 -0.3215732765259995    4    1   15   11
 -1.249000902703301e-15    4    1   15   15
 -0.104789312375202    4    1   16   12
 -0.0797618757878801    4    1   16   13
 -0.4212824508904535    4    1   16   14
 0.4424967115747463    4    1   16   15
 0.08567974655357538    4    2    2    2
 0.07754667799370527    4    2    3    2
 -0.007104835314062608    4    2    3    3
 0.5605966135505212    4    2    4    2
 0.1192719067346459    4    2    4    3
 0.05598505532521056    4    2    4    4
 -0.01398556141548203    4    2    5    2
 0.008900261032336307    4    2    5    3
 -0.03569496362571208    4    2    5    4
 -0.1345599665647224    4    2    5    5
 -0.08171659258692668    4    2    6    1
 -0.3437377482543585    4    2    6    6
 -0.0567920752213373    4    2    7    1
 -0.05807419276196862    4    2    7    6
 -0.1997728985075447    4    2    7    7
 -0.1855302371157222    4    2    8    1
 0.01619076368807609    4    2    8    6
 -0.2960614520612027    4    2    8    7
 -0.16079685782047    4    2    8    8
 -0.08058192499777835    4    2    9    1
 -0.0851861279441105    4    2    9    6
 0.03866095321710551    4    2    9    7
 -0.02839859919803982    4    2    9    8
 -0.007141989394268883    4    2    9    9
 0.458858821451694    4    2   10    1
 0.1698946520012954    4    2   10    6
 -0.3644790612865374    4    2   10    7
 -0.03399147943590472    4    2   10    8
 -0.3635277768173681    4    2   10    9
 0.3159397610888127    4    2   10   10
 -0.2983347257905302    4    2   11    1
 -0.03136784765774307    4    2   11    6
 0.08439222606562968    4    2   11    7
 0.0444257740857501    4    2   11    8
 0.2579879930386512    4    2   11    9
 -0.09020882571145544    4    2   11   10
 0.39550973288783    4    2   11   11
 0.01651918319692483    4    2   12    2
 -0.02975219981561903    4    2   12    3
 0.1590233446835333    4    2   12    4
 -0.07766167863102319    4    2   12    5
 -0.06145086134020621    4    2   12   12
 0.06341179823559698    4    2   13    2
 0.004306110209413346    4    2   13    3
 0.272278930067214    4    2   13    4
 0.02480141567743193    4    2   13    5
 -0.105666000756239    4    2   13   12
 -0.07594220534792982    4    2   13   13
 -0.2158843258826425    4    2   14    2
 0.1456636559892651    4    2   14    3
 -0.1829724487265465    4    2   14    4
 0.4190228155286078    4    2   14    5
 -0.3436810760776407    4    2   14   12
 -0.05880320437054435    4    2   14   13
 -0.04372249599809125    4    2   14   14
 0.300616793411682    4    2   15    2
 -0.1398215361778959    4    2   15    3
 0.397720528887378    4    2   15    4
 0.2109319501799285    4    2   15    5
 0.3937512720996163    4    2   15   12
 0.05699072155572613    4    2   15   13
 -0.192914771139005    4    2   15   14
 0.1811155626862277    4    2   15   15
 0.2260030638927696    4    2   16    6
 -0.2616514668476159    4    2   16    7
 0.1358442749359374    4    2   16    8
 0.05345877461493539    4    2   16    9
 0.3728240951934564    4    2   16   10
 -0.2655648600693003    4    2   16   11
 0.07754667799370528    4    3    2    2
 -0.007104835314062608    4    3    3    2
 -0.02431821291273341    4    3    3    3
 0.1192719067346458    4    3    4    2
 0.2680715139228427    4    3    4    3
 -0.2948939704268049    4    3    4    4
 0.008900261032336286    4    3    5    2
 0.008858977453475849    4    3    5    3
 0.0725508826158163    4    3    5    4
 0.2416655053458329    4    3    5    5
 -0.342487341968883    4    3    6    1
 -1.020884765612351e-15    4    3    6    4
 -0.5720244106126392    4    3    6    6
 0.09412266997079047    4    3    7    1
 0.03344111049671421    4    3    7    6
 0.1316383031720657    4    3    7    7
 -0.161043939052194    4    3    8    1
 -0.1608781393092808    4    3    8    6
 -0.07531748377348428    4    3    8    7
 0.1192833724538531    4    3    8    8
 -0.1207389566402283    4    3    9    1
 -0.09117455214745832    4    3    9    6
 -0.02908560098463418    4    3    9    7
 0.05022786503963031    4    3    9    8
 -0.05110000225072524    4    3    9    9
 0.02932369035836779    4    3   10    1
 0.1316412058409792    4    3   10    6
 -0.003152528702029218    4    3   10    7
 0.04229490352416514    4    3   10    8
 0.0533897507076299    4    3   10    9
 0.0812443728772925    4    3   10   10
 0.003887803773967238    4    3   11    1
 0.05915043510195273    4    3   11    6
 -0.09745963394920119    4    3   11    7
 0.05217024255477083    4    3   11    8
 -0.0006475938417327635    4    3   11    9
 0.163456838592942    4    3   11   10
 0.2909583643601535    4    3   11   11
 -0.02975219981561903    4    3   12    2
 0.01092198987048    4    3   12    3
 -0.3317211434550567    4    3   12    4
 -0.02679780225543312    4    3   12    5
 -0.02531033209085223    4    3   12   12
 0.00430611020941334    4    3   13    2
 0.09014840485034338    4    3   13    3
 0.1213231420941559    4    3   13    4
 0.009458799894923542    4    3   13    5
 0.03776766297436972    4    3   13   12
 0.04343762061083851    4    3   13   13
 0.1456636559892651    4    3   14    2
 0.1723463964435487    4    3   14    3
 -0.1707987160449257    4    3   14    4
 0.1542820379521673    4    3   14    5
 -0.2124110048536726    4    3   14   12
 0.1203388256078042    4    3   14   13
 0.04737359266677176    4    3   14   14
 -0.1398215361778959    4    3   15    2
 -0.1806648577972949    4    3   15    3
 0.1975979003293162    4    3   15    4
 0.07240653301831178    4    3   15    5
 0.1845568482727448    4    3   15   12
 -0.09571749775610008    4    3   15   13
 0.2424135537174457    4    3   15   14
 -0.06550088118675815    4    3   15   15
 0.3372591490701453    4    3   16    6
 -0.08002927303780394    4    3   16    7
 0.1803947459733184    4    3   16    8
 0.04920769066555315    4    3   16    9
 -0.1029584202330946    4    3   16   10
 0.04280397802762485    4    3   16   11
 0.625000000000001    4    4    1    1
 0.5605966135505212    4    4    2    2
 0.1192719067346458    4    4    3    2
 0.2680715139228427    4    4    3    3
 0.05598505532521049    4    4    4    2
 -0.2948939704268048    4    4    4    3
 1.23899539170747    4    4    4    4
 -0.03569496362571208    4    4    5    2
 0.07255088261581631    4    4    5    3
 0.007689886884869782    4    4    5    4
 0.4323364808191708    4    4    5    5
 0.5409166523783923    4    4    6    1
 -1.019150042136374e-15    4    4    6    3
 1.241876318711232    4    4    6    6
 -0.1129670277785375    4    4    7    1
 -0.2007014204303207    4    4    7    6
 0.4607831675673081    4    4    7    7
 0.08236212941702488    4    4    8    1
 0.3606492275916289    4    4    8    6
 0.08912753766154911    4    4    8    7
 0.3567721182940732    4    4    8    8
 -0.2003292645982113    4    4    9    1
 0.1702671006813239    4    4    9    6
 0.1353345891958986    4    4    9    7
 0.1293452597444513    4    4    9    8
 0.2874566463478739    4    4    9    9
 0.04517065682101402    4    4   10    1
 -0.111902844721854    4    4   10    6
 -0.1156107266427618    4    4   10    7
 0.0574222530420481    4    4   10    8
 -0.1332469776015445    4    4   10    9
 0.8663236382459012    4    4   10   10
 -0.1715780369907402    4    4   11    1
 -0.0773367539776809    4    4   11    6
 0.05750187000346454    4    4   11    7
 0.01899479084812272    4    4   11    8
 0.1089427167961797    4    4   11    9
 -0.3563794240728861    4    4   11   10
 0.5367881108336165    4    4   11   11
 0.1590233446835332    4    4   12    2
 -0.3317211434550567    4    4   12    3
 0.4656552561391567    4    4   12    4
 -0.1229007367124461    4    4   12    5
 0.6387726781450075    4    4   12   12
 0.272278930067214    4    4   13    2
 0.1213231420941559    4    4   13    3
 -0.1066882072576927    4    4   13    4
 -0.01206363298107341    4    4   13    5
 -0.002690135147506868    4    4   13   12
 0.1743188874286398    4    4   13   13
 -0.1829724487265465    4    4   14    2
 -0.1707987160449257    4    4   14    3
 0.1123322882342945    4    4   14    4
 -0.1083229858434926    4    4   14    5
 0.1380520507613915    4    4   14   12
 -0.04257574010957466    4    4   14   13
 0.8308721977371087    4    4   14   14
 0.397720528887378    4    4   15    2
 0.1975979003293162    4    4   15    3
 -0.09675574022838193    4    4   15    4
 -0.07907408689283549    4    4   15    5
 -1.137978600240785e-15    4    4   15   10
 -0.1094799186580624    4    4   15   12
 0.1765293595840084    4    4   15   13
 -0.4125387558302797    4    4   15   14
 0.8560362366892471    4    4   15   15
 -0.4289276972568783    4    4   16    6
 -0.1609619086063658    4    4   16    7
 -0.0424696981394365    4    4   16    8
 -0.3200545911873035    4    4   16    9
 0.2555909313247605    4    4   16   10
 -0.0655291808684457    4    4   16   11
 0.6250000000000004    4    4   16   16
 0.6249999999999997    5    1    5    1
 -1.226408839934134e-15    5    1    5    3
 -0.04703137179952479    5    1    6    2
 -0.003872204524453653    5    1    6    3
 -0.05590583270381481    5    1    6    4
 -0.1458906312979471    5    1    6    5
 0.4231159710726992    5    1    7    2
 0.02978281756832133    5    1    7    3
 -0.19832666950573    5    1    7    4
 0.3600302138940971    5    1    7    5
 0.238742182918323    5    1    8    2
 -0.04268829574290726    5    1    8    3
 -0.2745963868650562    5    1    8    4
 -0.1756958096674378    5    1    8    5
 0.07721578637551123    5    1    9    2
 -0.02303851494360047    5    1    9    3
 -0.09166298064877161    5    1    9    4
 -0.3391022403851255    5    1    9    5
 -0.05074281340059186    5    1   10    2
 -0.2347052056246291    5    1   10    3
 -0.3309112798079679    5    1   10    4
 -0.1080664183172085    5    1   10    5
 -0.285737077923665    5    1   11    2
 -0.3514768991456303    5    1   11    3
 -0.1855904570271104    5    1   11    4
 0.2879650310485772    5    1   11    5
 -0.02524570070526504    5    1   12    6
 0.2687695588687963    5    1   12    7
 0.3258846970488419    5    1   12    8
 0.06710621564262759    5    1   12    9
 0.2914648471423378    5    1   12   10
 0.3459529010851827    5    1   12   11
 -1.001965437702479e-15    5    1   13    5
 -0.03574277189454575    5    1   13    6
 0.2666293523413944    5    1   13    7
 0.1343420254094263    5    1   13    8
 0.06145745227572678    5    1   13    9
 -0.04587855414660215    5    1   13   10
 -0.2636340379746647    5    1   13   11
 -0.1129302020570473    5    1   14    6
 0.2353316101970397    5    1   14    7
 -0.2422624529399768    5    1   14    8
 0.09965150116678083    5    1   14    9
 0.3286274703140599    5    1   14   10
 -0.2625086450250097    5    1   14   11
 1.209969624493823e-15    5    1   15    5
 0.003851848225284008    5    1   15    6
 -0.1596738790783137    5    1   15    7
 -0.3640788023968693    5    1   15    8
 0.05350479047349595    5    1   15    9
 0.2891933391277575    5    1   15   10
 0.2442089309993708    5    1   15   11
 0.07141153375107878    5    1   16   12
 -0.01687526881266643    5    1   16   13
 -0.4563961567113809    5    1   16   14
 -0.4206461295303921    5    1   16   15
 0.01094350278032323    5    2    2    2
 0.01348007915591943    5    2    3    2
 0.001923892220054055    5    2    3    3
 -0.013985561415482    5    2    4    2
 0.008900261032336314    5    2    4    3
 -0.03569496362571206    5    2    4    4
 0.5254715092679919    5    2    5    2
 0.1810445623696914    5    2    5    3
 -0.1345599665647223    5    2    5    4
 0.0228275686253356    5    2    5    5
 -0.0470313717995248    5    2    6    1
 0.04522681791235584    5    2    6    6
 0.4231159710726993    5    2    7    1
 -0.09205720602171391    5    2    7    6
 0.3844183731499484    5    2    7    7
 0.238742182918323    5    2    8    1
 0.006547845606077004    5    2    8    6
 0.1727530743372748    5    2    8    7
 0.2553833085905129    5    2    8    8
 0.07721578637551123    5    2    9    1
 0.03739780809239567    5    2    9    6
 -0.2534615446268462    5    2    9    7
 -0.137325604287837    5    2    9    8
 -0.1165674860707279    5    2    9    9
 -0.05074281340059185    5    2   10    1
 0.04649926446671926    5    2   10    6
 -0.2909121462699217    5    2   10    7
 -0.004946615254983142    5    2   10    8
 -0.08991752745305372    5    2   10    9
 -0.430842356674057    5    2   10   10
 -0.2857370779236649    5    2   11    1
 0.09860218895060606    5    2   11    6
 -0.01445091143744581    5    2   11    7
 0.4312258565725955    5    2   11    8
 0.1581701996118721    5    2   11    9
 0.03967905810247909    5    2   11   10
 -0.1376186569080316    5    2   11   11
 0.02597540144765866    5    2   12    2
 -0.03880164776531857    5    2   12    3
 -0.07766167863102318    5    2   12    4
 0.1348012777435797    5    2   12    5
 0.1499586713331025    5    2   12   12
 0.01073159717270722    5    2   13    2
 0.01120666126030178    5    2   13    3
 0.02480141567743193    5    2   13    4