 &FCI NORB=  14,NELEC= 8,MS2=0,
  ORBSYM=1,1,1,1,1,1,1,1,1,1,1,1,1,1
  ISYM=1,
 &END
 0.1192188195710997    1    1    1    1
 -5.806742226577115e-05    1    1    2    1
 0.1192646498245961    1    1    2    2
 2.832632335747313e-05    1    1    3    1
 -1.103672031103203e-06    1    1    3    2
 0.119214356119109    1    1    3    3
 3.499011316496214e-05    1    1    4    1
 -4.111487297722705e-05    1    1    4    2
 -3.098689015750607e-05    1    1    4    3
 0.121201321087154    1    1    4    4
 -1.832826069450913e-06    1    1    5    1
 8.899662501525574e-06    1    1    5    2
 -4.105253584470343e-05    1    1    5    3
 -1.054398323565436e-07    1    1    5    4
 0.1171538919318453    1    1    5    5
 -1.050841568550967e-05    1    1    6    1
 -0.001568928327084106    1    1    6    2
 -0.00128571554474248    1    1    6    3
 4.50723239154246e-05    1    1    6    4
 -1.485413157800361e-05    1    1    6    5
 0.1191878393944462    1    1    6    6
 1.097166450102563e-05    1    1    7    1
 -0.001314813019708132    1    1    7    2
 0.001530393349227954    1    1    7    3
 9.000037117720683e-06    1    1    7    4
 4.257524713499952e-05    1    1    7    5
 -3.040986847527901e-06    1    1    7    6
 0.1190571153282367    1    1    7    7
 0.00230012852245031    1    1    8    1
 5.311360496017617e-06    1    1    8    2
 1.050360033438098e-05    1    1    8    3
 7.183643458888011e-05    1    1    8    4
 -6.891873649096571e-05    1    1    8    5
 3.927338431388631e-05    1    1    8    6
 2.095514010570874e-05    1    1    8    7
 0.119179299268315    1    1    8    8
 -0.001703006260766948    1    1    9    1
 4.957512104544412e-06    1    1    9    2
 -9.016804158043686e-06    1    1    9    3
 4.051864798379663e-05    1    1    9    4
 3.333197450155513e-05    1    1    9    5
 2.30128656556884e-05    1    1    9    6
 -4.041607930260066e-05    1    1    9    7
 3.747980065121198e-06    1    1    9    8
 0.1191757107736883    1    1    9    9
 -3.519588089312062e-06    1    1   10    1
 0.001539261172791259    1    1   10    2
 -0.001381563812042208    1    1   10    3
 8.707820233742197e-06    1    1   10    4
 7.849635485309217e-06    1    1   10    5
 -2.446750624588703e-05    1    1   10    6
 1.511095278886737e-05    1    1   10    7
 -4.361140657113509e-05    1    1   10    8
 1.964176274200057e-05    1    1   10    9
 0.1211448658542767    1    1   10   10
 3.782694563475228e-06    1    1   11    1
 0.001324360508207865    1    1   11    2
 0.001469658381051757    1    1   11    3
 -6.901691707054611e-06    1    1   11    4
 6.593993044946671e-06    1    1   11    5
 1.224743653437848e-05    1    1   11    6
 -2.358432132928794e-05    1    1   11    7
 1.206829334647608e-05    1    1   11    8
 4.18692221865035e-05    1    1   11    9
 9.586678723430553e-09    1    1   11   10
 0.117100092778246    1    1   11   11
 2.08405486918431e-05    1    1   12    1
 -1.215535848964749e-06    1    1   12    2
 -2.984436583397185e-06    1    1   12    3
 0.001467255248648389    1    1   12    4
 -0.001395620101689409    1    1   12    5
 -1.468998924007443e-06    1    1   12    6
 -7.143858841842515e-06    1    1   12    7
 0.002042071570589768    1    1   12    8
 0.0001140969730123766    1    1   12    9
 -4.073856859867012e-05    1    1   12   10
 -6.978737027721338e-06    1    1   12   11
 0.1190836127897231    1    1   12   12
 1.356256174603722e-05    1    1   13    1
 -2.322973498795379e-06    1    1   13    2
 3.328360937702828e-06    1    1   13    3
 -0.001417307913324934    1    1   13    4
 -0.001439763591257964    1    1   13    5
 -1.4228311188326e-05    1    1   13    6
 8.954523379040014e-07    1    1   13    7
 0.0001070962082224303    1    1   13    8
 -0.001994498772203785    1    1   13    9
 -2.75408395425383e-05    1    1   13   10
 4.314844169307688e-05    1    1   13   11
 -1.516609411984435e-06    1    1   13   12
 0.119037661048616    1    1   13   13
 1.048415964176319e-06    1    1   14    1
 4.912188241239929e-05    1    1   14    2
 4.04937428446165e-05    1    1   14    3
 -2.577027342742788e-06    1    1   14    4
 -3.952053876301632e-06    1    1   14    5
 -0.002858250731885246    1    1   14    6
 8.710646188597217e-05    1    1   14    7
 2.673104931255436e-06    1    1   14    8
 -1.475379469275881e-05    1    1   14    9
 3.316540495778078e-05    1    1   14   10
 -4.273560590840192e-07    1    1   14   11
 -5.720856063028655e-05    1    1   14   12
 2.899781351408184e-05    1    1   14   13
 0.119081304230645    1    1   14   14
 -5.806742226576768e-05    2    1    1    1
 0.1192646498245961    2    1    2    1
 3.185350296197251e-05    2    1    2    2
 -1.103672031100601e-06    2    1    3    1
 -3.856014505185159e-05    2    1    3    2
 6.220801831123991e-06    2    1    3    3
 -4.111487297721317e-05    2    1    4    1
 0.08758442331430477    2    1    4    2
 -0.0003350794601687402    2    1    4    3
 4.820112826384518e-06    2    1    4    4
 8.899662501525574e-06    2    1    5    1
 0.0003071002501806117    2    1    5    2
 0.08098826105889172    2    1    5    3
 2.579884744334515e-05    2    1    5    4
 9.375273928163841e-07    2    1    5    5
 -0.001568928327084101    2    1    6    1
 3.796192346449019e-06    2    1    6    2
 -5.204594311473054e-06    2    1    6    3
 -0.06436800394145011    2    1    6    4
 0.054437031670769    2    1    6    5
 9.347404904958998e-06    2    1    6    6
 -0.001314813019708126    2    1    7    1
 2.291717735979429e-05    2    1    7    2
 2.337358641318898e-05    2    1    7    3
 -0.05435784007613188    2    1    7    4
 -0.06427858663930877    2    1    7    5
 -7.506584512239831e-07    2    1    7    6
 -7.777654949213397e-06    2    1    7    7
 5.31136049601328e-06    2    1    8    1
 0.003036096382580632    2    1    8    2
 -3.829957299022633e-05    2    1    8    3
 -1.424263330897929e-05    2    1    8    4
 1.943661775220644e-05    2    1    8    5
 -0.08415787983912339    2    1    8    6
 -0.005094188755307981    2    1    8    7
 -2.054125387898446e-06    2    1    8    8
 4.957512104544412e-06    2    1    9    1
 -0.002192732149833856    2    1    9    2
 1.758692131732364e-05    2    1    9    3
 9.595684563889345e-06    2    1    9    4
 1.041072651130313e-05    2    1    9    5
 -0.005142538129960114    2    1    9    6
 0.08403951138811067    2    1    9    7
 1.257727352113429e-05    2    1    9    8
 9.389341527853146e-07    2    1    9    9
 0.001539261172791264    2    1   10    1
 3.585019876933826e-06    2    1   10    2
 3.651361867071379e-06    2    1   10    3
 0.001555990437391531    2    1   10    4
 -0.001366178878162637    2    1   10    5
 1.72474090367066e-05    2    1   10    6
 -7.734210704837818e-06    2    1   10    7
 0.08643995638098881    2    1   10    8
 0.008242124989792755    2    1   10    9
 -3.779216352795683e-07    2    1   10   10
 0.00132436050820786    2    1   11    1
 8.192559939369792e-07    2    1   11    2
 3.959249392214773e-06    2    1   11    3
 0.001319842958627592    2    1   11    4
 0.001453748280148158    2    1   11    5
 3.267684769223903e-06    2    1   11    6
 1.811859575811918e-05    2    1   11    7
 0.007756453779078492    2    1   11    8
 -0.08130962435287804    2    1   11    9
 3.237946753448934e-05    2    1   11   10
 -6.90173958481366e-06    2    1   11   11
 -1.215535848954341e-06    2    1   12    1
 0.0009849334228875309    2    1   12    2
 -0.0008669545917114468    2    1   12    3
 2.709470159234506e-06    2    1   12    4
 -1.126621170868813e-07    2    1   12    5
 -0.002867407051464206    2    1   12    6
 0.0001460797256605355    2    1   12    7
 -1.547278076568202e-05    2    1   12    8
 -1.682776918796036e-06    2    1   12    9
 0.08487547205576292    2    1   12   10
 -0.003366784423648057    2    1   12   11
 -6.833880392828617e-05    2    1   12   12
 -2.322973498793644e-06    2    1   13    1
 -0.0009136512483089105    2    1   13    2
 -0.0008871054492297337    2    1   13    3
 2.290423758178131e-06    2    1   13    4
 -3.763323043186328e-06    2    1   13    5
 0.0001430597497397456    2    1   13    6
 0.001434762539574449    2    1   13    7
 1.436548006168801e-05    2    1   13    8
 -1.629126726575975e-05    2    1   13    9
 -0.003424592964875608    2    1   13   10
 -0.08340603339779125    2    1   13   11
 2.906767022793459e-05    2    1   13   12
 2.995150475668638e-05    2    1   13   13
 4.912188241239582e-05    2    1   14    1
 -1.702316209818006e-07    2    1   14    2
 -2.53232733898965e-06    2    1   14    3
 0.001220413298893159    2    1   14    4
 -0.001075202856056034    2    1   14    5
 -3.225019305363227e-06    2    1   14    6
 -2.366368034516231e-06    2    1   14    7
 0.00364065623578657    2    1   14    8
 0.0003330597849791669    2    1   14    9
 -9.799085058740872e-06    2    1   14   10
 2.050504497829939e-05    2    1   14   11
 0.1189698412979065    2    1   14   12
 -0.004347336916950361    2    1   14   13
 5.944787892415981e-05    2    1   14   14
 0.1192646498245961    2    2    1    1
 3.185350296198292e-05    2    2    2    1
 0.1825588703890158    2    2    2    2
 -3.856014505184118e-05    2    2    3    1
 -2.951932880524213e-05    2    2    3    2
 0.05598816236000682    2    2    3    3
 0.08758442331430477    2    2    4    1
 5.630175475175234e-05    2    2    4    2
 -1.471193566030416e-05    2    2    4    3
 0.1218153624496519    2    2    4    4
 0.0003071002501806031    2    2    5    1
 -1.411014294595836e-05    2    2    5    2
 3.004455451389217e-05    2    2    5    3
 -5.324183966132039e-05    2    2    5    4
 0.1165423764220928    2    2    5    5
 3.796192346452489e-06    2    2    6    1
 -0.04838180784953176    2    2    6    2
 0.03780368775971118    2    2    6    3
 -2.94480363202676e-05    2    2    6    4
 9.109865980180126e-06    2    2    6    5
 0.119029448477313    2    2    6    6
 2.291717735979429e-05    2    2    7    1
 -0.04114402752490251    2    2    7    2
 -0.04428831854732376    2    2    7    3
 -2.493764266502801e-05    2    2    7    4
 -3.825442384816635e-05    2    2    7    5
 -0.001022374017874973    2    2    7    6
 0.1191960137342021    2    2    7    7
 0.003036096382580636    2    2    8    1
 9.376389353806316e-06    2    2    8    2
 8.563439615335948e-06    2    2    8    3
 0.04946130213437239    2    2    8    4
 -0.03654102352224779    2    2    8    5
 -3.898850529112383e-05    2    2    8    6
 -6.33966409171148e-06    2    2    8    7
 0.1218353170513556    2    2    8    8
 -0.00219273214983385    2    2    9    1
 1.442829621097624e-05    2    2    9    2
 3.205075176341762e-06    2    2    9    3
 -0.03677601584133883    2    2    9    4
 -0.04881198567171231    2    2    9    5
 -1.951812788602257e-05    2    2    9    6
 3.117791865150932e-05    2    2    9    7
 0.0005142883508295684    2    2    9    8
 0.1165390664929921    2    2    9    9
 3.585019876923418e-06    2    2   10    1
 0.003045085646715455    2    2   10    2
 -0.0008738818859526975    2    2   10    3
 5.741416536947375e-06    2    2   10    4
 1.652003726705133e-05    2    2   10    5
 -0.06280119631610637    2    2   10    6
 0.002157208856860878    2    2   10    7
 4.003642246618901e-05    2    2   10    8
 -1.648777398209969e-05    2    2   10    9
 0.1217692119812919    2    2   10   10
 8.192559939439181e-07    2    2   11    1
 0.002618387019069544    2    2   11    2
 0.0009284582699344767    2    2   11    3
 -5.761352485133056e-06    2    2   11    4
 5.704778808368963e-06    2    2   11    5
 -0.002030459215482561    2    2   11    6
 -0.0600975041779984    2    2   11    7
 1.20361696528612e-06    2    2   11    8
 -3.027666572196983e-05    2    2   11    9
 3.334136863189854e-06    2    2   11   10
 0.1164705230516681    2    2   11   11
 0.0009849334228875274    2    2   12    1
 1.823643591969404e-06    2    2   12    2
 -1.001733884854403e-06    2    2   12    3
 0.002171202619059939    2    2   12    4
 -0.002025912947422121    2    2   12    5
 -3.673601500732079e-07    2    2   12    6
 -6.969593244761374e-06    2    2   12    7
 0.06394451168903996    2    2   12    8
 0.008476397309896841    2    2   12    9
 9.555800503546763e-06    2    2   12   10
 2.865076418846757e-05    2    2   12   11
 0.1783737686172015    2    2   12   12
 -0.0009136512483089096    2    2   13    1
 -1.95214621739187e-06    2    2   13    2
 -2.126813708713555e-06    2    2   13    3
 -0.001637286466873276    2    2   13    4
 -0.001631348315169182    2    2   13    5
 -1.68865800040845e-05    2    2   13    6
 -2.101240208097349e-06    2    2   13    7
 -0.008193605806822612    2    2   13    8
 0.05866960657123172    2    2   13    9
 6.485938447341189e-06    2    2   13   10
 -4.886262666803105e-05    2    2   13   11
 -0.004342457042099589    2    2   13   12
 0.05967967561633004    2    2   13   13
 -1.702316209800658e-07    2    2   14    1
 0.0008407748153923811    2    2   14    2
 -0.000648568710411193    2    2   14    3
 2.358001298226331e-06    2    2   14    4
 -2.887689897023218e-06    2    2   14    5
 -0.003726784131680485    2    2   14    6
 0.0001151065990156255    2    2   14    7
 1.101314937638868e-05    2    2   14    8
 -1.541157105451607e-05    2    2   14    9
 0.08607189909512106    2    2   14   10
 -0.0003137625537146943    2    2   14   11
 6.846469855624482e-05    2    2   14   12
 2.482650360177002e-06    2    2   14   13
 0.1190380935322805    2    2   14   14
 2.832632335748268e-05    3    1    1    1
 -1.103672031101469e-06    3    1    2    1
 -3.856014505184985e-05    3    1    2    2
 0.119214356119109    3    1    3    1
 6.220801831117919e-06    3    1    3    2
 2.455804143253746e-05    3    1    3    3
 -3.098689015750521e-05    3    1    4    1
 -0.0003350794601687428    3    1    4    2
 -0.08756463925363896    3    1    4    3
 -6.133790885959334e-06    3    1    4    4
 -4.10525358447069e-05    3    1    5    1
 0.0809882610588917    3    1    5    2
 -0.0003124350344510406    3    1    5    3
 -5.726200300257452e-06    3    1    5    4
 -5.081104490780274e-07    3    1    5    5
 -0.001285715544742476    3    1    6    1
 -5.204594311470235e-06    3    1    6    2
 -4.224615256189033e-05    3    1    6    3
 0.05442710506686575    3    1    6    4
 0.06435655500512975    3    1    6    5
 5.587870517989168e-06    3    1    6    6
 0.001530393349227949    3    1    7    1
 2.337358641318985e-05    3    1    7    2
 1.168100422728338e-05    3    1    7    3
 -0.06426797494684759    3    1    7    4
 0.05434770883162317    3    1    7    5
 4.618658776908095e-06    3    1    7    6
 -5.788082568600021e-06    3    1    7    7
 1.050360033437751e-05    3    1    8    1
 -3.829957299022156e-05    3    1    8    2
 0.002951902957434843    3    1    8    3
 -1.028573666449857e-05    3    1    8    4
 2.948424960527848e-05    3    1    8    5
 -0.005109336108810066    3    1    8    6
 0.08402063741232105    3    1    8    7
 -1.068027746789317e-05    3    1    8    8
 -9.016804158041951e-06    3    1    9    1
 1.758692131732537e-05    3    1    9    2
 -0.002240792420326357    3    1    9    3
 3.305233379610577e-05    3    1    9    4
 1.246012568730664e-06    3    1    9    5
 0.08414261293603544    3    1    9    6
 0.005127190184074508    3    1    9    7
 1.052416864670471e-06    3    1    9    8
 1.270280698613489e-05    3    1    9    9
 -0.001381563812042199    3    1   10    1
 3.651361867073113e-06    3    1   10    2
 -8.944770870818446e-06    3    1   10    3
 0.001368189133053828    3    1   10    4
 0.001512414012399294    3    1   10    5
 2.413050314182532e-05    3    1   10    6
 -2.31592496704059e-05    3    1   10    7
 -0.008243149534072507    3    1   10    8
 0.08641914755001495    3    1   10    9
 1.890585279027465e-05    3    1   10   10
 0.001469658381051756    3    1   11    1
 3.959249392218242e-06    3    1   11    2
 8.906514139864295e-06    3    1   11    3
 -0.001458855439619705    3    1   11    4
 0.001283402549323844    3    1   11    5
 2.001557466393153e-05    3    1   11    6
 2.197384780242267e-05    3    1   11    7
 0.08129234656966215    3    1   11    8
 0.007750591485891673    3    1   11    9
 -6.986721431807147e-06    3    1   11   10
 -1.996943924260962e-05    3    1   11   11
 -2.984436583397185e-06    3    1   12    1
 -0.0008669545917114416    3    1   12    2
 -0.0009313209433044402    3    1   12    3
 4.840025914942814e-06    3    1   12    4
 -4.469143610665027e-06    3    1   12    5
 -0.0001526190351940375    3    1   12    6
 -0.001413776747651448    3    1   12    7
 -1.639094753499602e-05    3    1   12    8
 -2.313517127360085e-05    3    1   12    9
 -0.003422557250288455    3    1   12   10
 -0.08342370129268789    3    1   12   11
 -1.022190747146639e-05    3    1   12   12
 3.32836093770131e-06    3    1   13    1
 -0.0008871054492297346    3    1   13    2
 0.0009507280356689196    3    1   13    3
 -7.836755631959128e-06    3    1   13    4
 -7.651656700946672e-06    3    1   13    5
 -0.002840728345162385    3    1   13    6
 0.0001322592646257623    3    1   13    7
 2.130274022567411e-05    3    1   13    8
 -2.77360565716458e-05    3    1   13    9
 -0.08481191864636939    3    1   13   10
 0.003364912229982005    3    1   13   11
 -4.685545445094362e-05    3    1   13   12
 2.268921518650338e-05    3    1   13   13
 4.049374284461824e-05    3    1   14    1
 -2.532327338988782e-06    3    1   14    2
 2.882393337819839e-06    3    1   14    3
 -0.001094748440737113    3    1   14    4
 -0.001192627114351601    3    1   14    5
 -1.15789742277351e-05    3    1   14    6
 3.273707424155531e-08    3    1   14    7
 0.0003308402141086143    3    1   14    8
 -0.003614066470855688    3    1   14    9
 -3.672532171092573e-05    3    1   14   10
 1.914389718337848e-05    3    1   14   11
 0.004346276097377267    3    1   14   12
 0.118969165856212    3    1   14   13
 -2.090835713356755e-05    3    1   14   14
 -1.103672031104938e-06    3    2    1    1
 -3.856014505184552e-05    3    2    2    1
 -2.951932880523693e-05    3    2    2    2
 6.22080183111922e-06    3    2    3    1
 0.05598816236000682    3    2    3    2
 2.635731037761062e-05    3    2    3    3
 -0.0003350794601687411    3    2    4    1
 -1.471193566030329e-05    3    2    4    2
 -2.323660461256861e-05    3    2    4    3
 -4.990705786273638e-05    3    2    4    4
 0.08098826105889172    3    2    5    1
 3.004455451389217e-05    3    2    5    2
 -3.137461773450962e-05    3    2    5    3
 -1.29396906510407e-05    3    2    5    4
 5.035575698441458e-05    3    2    5    5
 -5.204594311475439e-06    3    2    6    1
 0.03780368775971118    3    2    6    2
 0.04433490708232221    3    2    6    3
 3.555054313985327e-05    3    2    6    4
 5.893739629544547e-06    3    2    6    5
 0.0009765644185394243    3    2    6    6
 2.337358641318638e-05    3    2    7    1
 -0.04428831854732377    3    2    7    2
 0.03775344317133644    3    2    7    3
 6.696154870448542e-06    3    2    7    4
 2.76090338946211e-05    3    2    7    5
 -0.0001668611549126855    3    2    7    6
 -0.0009738123264680081    3    2    7    7
 -3.829957299022156e-05    3    2    8    1
 8.563439615340285e-06    3    2    8    2
 1.57999135243299e-05    3    2    8    3
 -0.0347918066505723    3    2    8    4
 -0.04612102384185798    3    2    8    5
 2.736199757129082e-05    3    2    8    6
 1.803646543591456e-05    3    2    8    7
 -0.0004846742128478358    3    2    8    8
 1.758692131732624e-05    3    2    9    1
 3.205075176341762e-06    3    2    9    2
 2.739070897164742e-06    3    2    9    3
 -0.04658832900269565    3    2    9    4
 0.0344389947147602    3    2    9    5
 2.234039991403335e-05    3    2    9    6
 -1.83764782962989e-05    3    2    9    7
 0.002521528526985646    3    2    9    8
 0.0004852987163027622    3    2    9    9
 3.651361867071379e-06    3    2   10    1
 -0.0008738818859526957    3    2   10    2
 0.0009613682342225574    3    2   10    3
 1.948316461566901e-06    3    2   10    4
 5.44261529953835e-06    3    2   10    5
 0.002034869874666349    3    2   10    6
 0.05887992119448917    3    2   10    7
 -1.475456197443234e-05    3    2   10    8
 1.941684599326109e-05    3    2   10    9
 -4.353108990698754e-06    3    2   10   10
 3.959249392220844e-06    3    2   11    1
 0.0009284582699344767    3    2   11    2
 0.0008279241626392726    3    2   11    3
 -9.17946148735159e-06    3    2   11    4
 6.956612718467779e-06    3    2   11    5
 -0.05632220429783181    3    2   11    6
 0.00194618797429448    3    2   11    7
 9.998253487865025e-06    3    2   11    8
 3.886173541854405e-05    3    2   11    9
 -1.72044094247318e-05    3    2   11   10
 5.9552053901131e-06    3    2   11   11
 -0.0008669545917114451    3    2   12    1
 -1.001733884852668e-06    3    2   12    2
 -2.575002803354223e-06    3    2   12    3
 -0.0001901854823124433    3    2   12    4
 -0.0002161927635156808    3    2   12    5
 3.295275959101654e-06    3    2   12    6
 -8.142998111302854e-06    3    2   12    7
 -0.007745380831648324    3    2   12    8
 0.05669503941961055    3    2   12    9
 -3.869058073145432e-05    3    2   12   10
 1.207270392001181e-05    3    2   12   11
 0.004342064621716461    3    2   12   12
 -0.0008871054492297372    3    2   13    1
 -2.126813708716157e-06    3    2   13    2
 -3.977866241495044e-06    3    2   13    3
 0.0002187056153790884    3    2   13    4
 -0.0001763267385358465    3    2   13    5
 -6.377365918224225e-06    3    2   13    6
 2.150079971269432e-06    3    2   13    7
 -0.05667862493395696    3    2   13    8
 -0.007736914359789647    3    2   13    9
 -2.924266931087806e-05    3    2   13   10
 1.673112490169952e-05    3    2   13   11
 0.05934069111715033    3    2   13   12
 -0.0043420064680986    3    2   13   13
 -2.532327338987915e-06    3    2   14    1
 -0.0006485687104111895    3    2   14    2
 -0.0007134255628663425    3    2   14    3
 1.358473998707387e-06    3    2   14    4
 -2.134975741550048e-06    3    2   14    5
 -1.326293382440582e-06    3    2   14    6
 2.818378929618504e-06    3    2   14    7
 4.163131266137887e-06    3    2   14    8
 -1.821991530519089e-06    3    2   14    9
 -0.0003278360822376279    3    2   14   10
 -0.0823413202065103    3    2   14   11
 -2.591175668849831e-05    3    2   14   12
 4.967145487827333e-05    3    2   14   13
 -1.219854206825285e-06    3    2   14   14
 0.119214356119109    3    3    1    1
 6.220801831125292e-06    3    3    2    1
 0.05598816236000682    3    3    2    2
 2.455804143256467e-05    3    3    3    1
 2.635731037761496e-05    3    3    3    2
 0.1825308375420463    3    3    3    3
 -0.08756463925363896    3    3    4    1
 -2.323660461256991e-05    3    3    4    2
 -1.120226303345014e-05    3    3    4    3
 0.1218249244629956    3    3    4    4
 -0.0003124350344510449    3    3    5    1
 -3.137461773450919e-05    3    3    5    2
 -9.130508564948498e-06    3    3    5    3
 5.305020699852337e-05    3    3    5    4
 0.1165610505426859    3    3    5    5
 -4.22461525618765e-05    3    3    6    1
 0.04433490708232222    3    3    6    2
 -0.04118316225565767    3    3    6    3
 4.199340787947427e-06    3    3    6    4
 -8.222428293653747e-06    3    3    6    5
 0.1193696803587246    3    3    6    6
 1.168100422729032e-05    3    3    7    1
 0.03775344317133643    3    3    7    2
 0.04830999913120499    3    3    7    3
 1.049202038340023e-05    3    3    7    4
 7.151585007062703e-06    3    3    7    5
 0.001014760663045654    3    3    7    6
 0.1188615132680199    3    3    7    7
 0.002951902957434832    3    3    8    1
 1.579991352433142e-05    3    3    8    2
 2.267293743088579e-05    3    3    8    3
 -0.04931433668824596    3    3    8    4
 0.03639077062186909    3    3    8    5
 1.172553414911705e-05    3    3    8    6
 -9.468025756141467e-06    3    3    8    7
 0.1165384707650734    3    3    8    8
 -0.002240792420326362    3    3    9    1
 2.739070897167777e-06    3    3    9    2
 -3.11695239877416e-05    3    3    9    3
 0.03691240042278893    3    3    9    4
 0.04893839634555146    3    3    9    5
 9.33307547778075e-06    3    3    9    6
 -6.632245928386502e-06    3    3    9    7
 -0.0005055873582458647    3    3    9    8
 0.121830302932458    3    3    9    9
 -8.944770870822783e-06    3    3   10    1
 0.0009613682342225552    3    3   10    2
 -0.002724267388514461    3    3   10    3
 2.526668820208768e-05    3    3   10    4
 7.052618405003217e-06    3    3   10    5
 0.06278900080792765    3    3   10    6
 -0.002120440833621035    3    3   10    7
 -1.065189883988444e-05    3    3   10    8
 1.614874751345143e-05    3    3   10    9
 0.1217240431326468    3    3   10   10
 8.906514139859741e-06    3    3   11    1
 0.0008279241626392678    3    3   11    2
 0.002898305802070868    3    3   11    3
 -1.529149643192938e-05    3    3   11    4
 1.983165568163105e-05    3    3   11    5
 0.002063638214815904    3    3   11    6
 0.0600845824526266    3    3   11    7
 -1.664159222580005e-05    3    3   11    8
 4.2542679694192e-06    3    3   11    9
 -3.238523296319497e-06    3    3   11   10
 0.116492867268432    3    3   11   11
 -0.0009313209433044389    3    3   12    1
 -2.575002803351188e-06    3    3   12    2
 -6.765456351752333e-06    3    3   12    3
 0.001648399382543637    3    3   12    4
 -0.00160644790508995    3    3   12    5
 -9.095935798534129e-06    3    3   12    6
 -2.039743865927353e-05    3    3   12    7
 -0.05867816690601231    3    3   12    8
 -0.008186371736561183    3    3   12    9
 2.217008556713298e-05    3    3   12   10
 1.888991297745732e-05    3    3   12   11
 0.05970498736736707    3    3   12   12
 0.0009507280356689161    3    3   13    1
 -3.977866241495044e-06    3    3   13    2
 8.349345479711731e-06    3    3   13    3
 -0.002053312350146854    3    3   13    4
 -0.002117012340595454    3    3   13    5
 -2.632103743544851e-05    3    3   13    6
 8.583707720116393e-06    3    3   13    7
 0.008479412965752118    3    3   13    8
 -0.06391179456850847    3    3   13    9
 -3.031698528932285e-05    3    3   13   10
 2.697983200569134e-05    3    3   13   11
 0.004341875080911901    3    3   13   12
 0.1783761725590077    3    3   13   13
 2.882393337814201e-06    3    3   14    1
 -0.000713425562866337    3    3   14    2
 0.0007555728077021525    3    3   14    3
 -5.987055350400311e-06    3    3   14    4
 -7.06900109424531e-06    3    3   14    5
 -0.003714192382595696    3    3   14    6
 0.0001116212654167009    3    3   14    7
 4.028947689049085e-06    3    3   14    8
 -3.285001787016548e-05    3    3   14    9
 -0.08605555899628731    3    3   14   10
 0.0003132662246238063    3    3   14   11
 -3.192400471328056e-05    3    3   14   12
 -2.20781966022536e-05    3    3   14   13
 0.1190831713214251    3    3   14   14
 3.499011316496561e-05    4    1    1    1
 -4.111487297721317e-05    4    1    2    1
 0.08758442331430477    4    1    2    2
 -3.098689015751041e-05    4    1    3    1
 -0.0003350794601687376    4    1    3    2
 -0.08756463925363897    4    1    3    3
 0.121201321087154    4    1    4    1
 4.820112826382783e-06    4    1    4    2
 -6.133790885956732e-06    4    1    4    3
 -1.943070398760516e-06    4    1    4    4
 -1.054398323548089e-07    4    1    5    1
 2.579884744334689e-05    4    1    5    2
 -5.726200300257452e-06    4    1    5    3
 -8.194757013794789e-05    4    1    5    4
 -1.746340213936489e-05    4    1    5    5
 4.507232391542763e-05    4    1    6    1
 -0.06436800394145011    4    1    6    2
 0.05442710506686575    4    1    6    3
 1.347243340116006e-05    4    1    6    4
 -7.280808899335234e-06    4    1    6    5
 -0.0002175780161918486    4    1    6    6
 9.000037117722418e-06    4    1    7    1
 -0.05435784007613188    4    1    7    2
 -0.06426797494684759    4    1    7    3
 -4.207222838333718e-06    4    1    7    4
 6.669455464614754e-06    4    1    7    5
 -0.001276261158081855    4    1    7    6
 0.0002134771946047075    4    1    7    7
 7.183643458888098e-05    4    1    8    1
 -1.424263330897756e-05    4    1    8    2
 -1.028573666449987e-05    4    1    8    3
 0.06864320598965114    4    1    8    4
 -0.05014327005075672    4    1    8    5
 6.114835248079023e-06    4    1    8    6
 1.391816732293494e-05    4    1    8    7
 0.003799753064198148    4    1    8    8
 4.051864798380357e-05    4    1    9    1
 9.595684563882406e-06    4    1    9    2
 3.30523337961049e-05    4    1    9    3
 -0.05082405070301058    4    1    9    4
 -0.06771530869179616    4    1    9    5
 -8.649104229564979e-06    4    1    9    6
 -1.423750785922023e-05    4    1    9    7
 0.0007171118035746212    4    1    9    8
 -0.003795797744543878    4    1    9    9
 8.707820233743932e-06    4    1   10    1
 0.001555990437391526    4    1   10    2
 0.001368189133053826    4    1   10    3
 -2.343412153141093e-05    4    1   10    4
 8.033464294837991e-06    4    1   10    5
 -0.08704660144783932    4    1   10    6
 0.002652175751267274    4    1   10    7
 -8.228641570321923e-06    4    1   10    8
 -1.824582309204077e-05    4    1   10    9
 3.512755161565531e-05    4    1   10   10
 -6.90169170705808e-06    4    1   11    1
 0.001319842958627589    4    1   11    2
 -0.001458855439619708    4    1   11    3
 5.203932104966627e-06    4    1   11    4
 -1.877626914866676e-05    4    1   11    5
 -0.002530724170215654    4    1   11    6
 -0.08303556053512082    4    1   11    7
 1.808572960572755e-05    4    1   11    8
 1.711488506039166e-05    4    1   11    9
 9.437804559461749e-06    4    1   11   10
 -1.947426606503828e-05    4    1   11   11
 0.001467255248648394    4    1   12    1
 2.709470159231037e-06    4    1   12    2
 4.840025914945416e-06    4    1   12    3