 &FCI NORB=  16,NELEC=10,MS2=2,
  ORBSYM=1,1,1,1,1,1,1,1,1,1,1,1,1,1,1,1
  ISYM=1,
 &END
 0.3917685889181314    1    1    1    1
 0.4059251023621989    1    1    2    2
 0.001353972648570756    1    1    3    2
 0.4053657194270285    1    1    3    3
 -0.001997282551347086    1    1    4    2
 0.002778383991242476    1    1    4    3
 0.4068404370793903    1    1    4    4
 0.003411141136275299    1    1    5    2
 0.002262994353160516    1    1    5    3
 -0.006289606857026011    1    1    5    4
 0.247613364749324    1    1    5    5
 -0.05079096404690756    1    1    6    1
 0.2475066854224946    1    1    6    6
 -0.005580945300389653    1    1    7    1
 -0.02036007611301147    1    1    7    6
 0.3923227231652468    1    1    7    7
 0.005212754034893217    1    1    8    1
 0.01131336107377044    1    1    8    6
 -0.01045601528519288    1    1    8    7
 0.4004295107463864    1    1    8    8
 -0.01107039726847418    1    1    9    1
 -0.03354079342948457    1    1    9    6
 -0.000511363408494411    1    1    9    7
 -0.0006498733446003843    1    1    9    8
 0.4125656552080743    1    1    9    9
 0.003729347898545371    1    1   10    1
 0.01541945031017451    1    1   10    6
 -0.009799620201679168    1    1   10    7
 0.008789370488483984    1    1   10    8
 0.02074637002250569    1    1   10    9
 0.3967818235050442    1    1   10   10
 0.02537792324824055    1    1   11    1
 0.05960447890288269    1    1   11    6
 0.01747736637780701    1    1   11    7
 -0.02054504804232209    1    1   11    8
 0.01702866073580602    1    1   11    9
 -0.01655434793090641    1    1   11   10
 0.3715936671945745    1    1   11   11
 0.01440208420860391    1    1   12    2
 -0.002142236313177781    1    1   12    3
 -0.01206414459766303    1    1   12    4
 0.03665039706954545    1    1   12    5
 0.4002107112128542    1    1   12   12
 -0.008968757112588457    1    1   13    2
 0.01990337297723617    1    1   13    3
 0.004868588409383152    1    1   13    4
 0.04517001851920894    1    1   13    5
 -0.01570947812596137    1    1   13   12
 0.3852371889200846    1    1   13   13
 0.01332450822675025    1    1   14    2
 0.008379541743117823    1    1   14    3
 0.01029475774356852    1    1   14    4
 -0.04738814320249065    1    1   14    5
 0.01332018934146593    1    1   14   12
 0.02249980067921471    1    1   14   13
 0.3888043220077466    1    1   14   14
 -0.002931381847436604    1    1   15    2
 0.006464739572260268    1    1   15    3
 -0.02102959689373626    1    1   15    4
 -0.06645939818643019    1    1   15    5
 0.0224746154328153    1    1   15   12
 0.02950231142966958    1    1   15   13
 -0.02981725676888784    1    1   15   14
 0.3600031542413723    1    1   15   15
 0.005670471402550149    1    1   16    1
 -0.05962295429098362    1    1   16    6
 -0.006850318939296739    1    1   16    7
 0.000577769261145293    1    1   16    8
 -0.01404266077579488    1    1   16    9
 0.007224611255187328    1    1   16   10
 0.02500322353797404    1    1   16   11
 0.3870313458400488    1    1   16   16
 0.4059251023621989    2    1    2    1
 0.001353972648570744    2    1    3    1
 -0.001997282551347086    2    1    4    1
 0.003411141136275303    2    1    5    1
 -0.1774820876901299    2    1    6    2
 0.09175214313516325    2    1    6    3
 0.03410347002153401    2    1    6    4
 0.00714495952092552    2    1    6    5
 0.02944824350010668    2    1    7    2
 -0.009223183093196486    2    1    7    3
 -0.1154902015403399    2    1    7    4
 -0.1893271114052139    2    1    7    5
 0.08284112682449649    2    1    8    2
 0.2209820745143077    2    1    8    3
 -0.1048025529997364    2    1    8    4
 -0.1082101506473629    2    1    8    5
 0.3758386567392952    2    1    9    2
 -0.02439174080304033    2    1    9    3
 0.08198589362348901    2    1    9    4
 0.01067094254171472    2    1    9    5
 0.06761247758828262    2    1   10    2
 0.06824340114732481    2    1   10    3
 0.2638119345147078    2    1   10    4
 -0.02988492195986049    2    1   10    5
 0.03188297247000395    2    1   11    2
 0.1336466962991128    2    1   11    3
 0.02669547052611466    2    1   11    4
 0.02732053534259686    2    1   11    5
 0.01440208420860396    2    1   12    1
 -0.03499476517880475    2    1   12    6
 -0.147199557626313    2    1   12    7
 -0.2207661229979163    2    1   12    8
 0.06671297947989019    2    1   12    9
 0.230520977988158    2    1   12   10
 0.1220215204333251    2    1   12   11
 -0.008968757112588458    2    1   13    1
 -0.03226348886263587    2    1   13    6
 -0.1785439067880095    2    1   13    7
 -0.1324304625073847    2    1   13    8
 -0.06284364335968524    2    1   13    9
 -0.07653419020488406    2    1   13   10
 -0.2066044952587992    2    1   13   11
 0.01332450822675028    2    1   14    1
 -0.1664470922189435    2    1   14    6
 0.08026158177314965    2    1   14    7
 0.06585259095469347    2    1   14    8
 0.2775697822393913    2    1   14    9
 0.1812552926326519    2    1   14   10
 -0.07935054186254505    2    1   14   11
 -0.002931381847436618    2    1   15    1
 0.01929893951580876    2    1   15    6
 0.1385789417222303    2    1   15    7
 -0.00696727512572472    2    1   15    8
 -0.2155892854936459    2    1   15    9
 -0.01823500811269284    2    1   15   10
 -0.06549186046894223    2    1   15   11
 0.00976603596547071    2    1   16    2
 -0.001038970623126878    2    1   16    3
 0.0005413104952823634    2    1   16    4
 0.0002239545168424486    2    1   16    5
 0.2998915648392344    2    1   16   12
 -0.09445257366606323    2    1   16   13
 0.2357987372699408    2    1   16   14
 -0.084233768172467    2    1   16   15
 0.4059251023621989    2    2    1    1
 0.8470581537216573    2    2    2    2
 0.003317024657276723    2    2    3    2
 0.2071803757184175    2    2    3    3
 0.06245551033370973    2    2    4    2
 -0.000541174495100996    2    2    4    3
 0.254134841311489    2    2    4    4
 -0.02905764395641706    2    2    5    2
 -0.05310175386656428    2    2    5    3
 0.0692440082093599    2    2    5    4
 0.1286345576120728    2    2    5    5
 -0.1774820876901299    2    2    6    1
 0.1743010967568978    2    2    6    6
 0.02944824350010669    2    2    7    1
 -0.02856736701228134    2    2    7    6
 0.3328891717425899    2    2    7    7
 0.08284112682449649    2    2    8    1
 0.006410420861800214    2    2    8    6
 0.2435454971908906    2    2    8    7
 0.3825907259205709    2    2    8    8
 0.3758386567392952    2    2    9    1
 -0.2764777191332345    2    2    9    6
 -0.01359247178306095    2    2    9    7
 0.07343971669851233    2    2    9    8
 0.6609603348660589    2    2    9    9
 0.06761247758828259    2    2   10    1
 -0.07018752375922573    2    2   10    6
 -0.07515029587009878    2    2   10    7
 -0.08480818737694341    2    2   10    8
 0.2693260698072266    2    2   10    9
 0.4209960530756651    2    2   10   10
 0.03188297247000395    2    2   11    1
 0.0623655473785043    2    2   11    6
 -0.01269744482395896    2    2   11    7
 0.0614645325469733    2    2   11    8
 0.05332908381389451    2    2   11    9
 0.1219354926714894    2    2   11   10
 0.2258760475485298    2    2   11   11
 0.06095869352436076    2    2   12    2
 -0.05049882548776791    2    2   12    3
 0.2723786232255842    2    2   12    4
 0.124102091454205    2    2   12    5
 0.5799175997819087    2    2   12   12
 -0.1123223434061116    2    2   13    2
 -0.1647145870001939    2    2   13    3
 0.008567298867838927    2    2   13    4
 0.1149218536607107    2    2   13    5
 -0.03990061677463805    2    2   13   12
 0.2871728117416295    2    2   13   13
 0.3641058925829282    2    2   14    2
 -0.01807830470035242    2    2   14    3
 0.1030614961991739    2    2   14    4
 -0.07277645301000113    2    2   14    5
 0.235960331634838    2    2   14   12
 -0.1335963321841158    2    2   14   13
 0.5048553690507114    2    2   14   14
 -0.1989914855640921    2    2   15    2
 -0.01421344466607193    2    2   15    3
 -0.08905097720042601    2    2   15    4
 -0.0750132283782828    2    2   15    5
 -0.1715441241464963    2    2   15   12
 0.02502565495146708    2    2   15   13
 -0.1616448934596975    2    2   15   14
 0.1910462910621147    2    2   15   15
 0.00976603596547071    2    2   16    1
 -0.1133367019254773    2    2   16    6
 -0.04882343712083118    2    2   16    7
 -0.09202673951795937    2    2   16    8
 0.2597897933468818    2    2   16    9
 0.2945993690623183    2    2   16   10
 0.1052678385274012    2    2   16   11
 0.3964614677274908    2    2   16   16
 0.001353972648570749    3    1    2    1
 0.4053657194270285    3    1    3    1
 0.002778383991242455    3    1    4    1
 0.002262994353160501    3    1    5    1
 0.09175214313516325    3    1    6    2
 -0.04873337247791379    3    1    6    3
 0.05682237573413168    3    1    6    4
 0.09551587575601869    3    1    6    5
 -0.009223183093196479    3    1    7    2
 -0.311925775575419    3    1    7    3
 0.01832276878794645    3    1    7    4
 -0.01924937784947332    3    1    7    5
 0.2209820745143076    3    1    8    2
 0.06048453263064702    3    1    8    3
 -0.1806931425814458    3    1    8    4
 0.06353070029456789    3    1    8    5
 -0.02439174080304033    3    1    9    2
 -0.2193755270326525    3    1    9    3
 0.06784015679739697    3    1    9    4
 -0.05712330417335326    3    1    9    5
 0.06824340114732481    3    1   10    2
 -0.07929600491114301    3    1   10    3
 -0.1419535570557552    3    1   10    4
 0.1141562461846335    3    1   10    5
 0.1336466962991128    3    1   11    2
 -0.02691669036077607    3    1   11    3
 0.2530696570802628    3    1   11    4
 0.1546924801136966    3    1   11    5
 -0.002142236313177767    3    1   12    1
 -0.001080351230219078    3    1   12    6
 -0.2234320780648638    3    1   12    7
 0.06976388437506681    3    1   12    8
 -0.05834055941079336    3    1   12    9
 0.1089815228464391    3    1   12   10
 -0.1439873833928126    3    1   12   11
 0.01990337297723614    3    1   13    1
 -0.01467604049994222    3    1   13    6
 0.08426862907197782    3    1   13    7
 0.227824118148138    3    1   13    8
 -0.2830714455840844    3    1   13    9
 0.10802722528533    3    1   13   10
 0.05911591733190889    3    1   13   11
 0.008379541743117816    3    1   14    1
 -0.1900775195511903    3    1   14    6
 0.1336753936491154    3    1   14    7
 -0.1011674011209746    3    1   14    8
 -0.07279358819613059    3    1   14    9
 -0.08529319699157295    3    1   14   10
 -0.2470472371806835    3    1   14   11
 0.006464739572260268    3    1   15    1
 -0.08610168880129779    3    1   15    6
 -0.116996717655281    3    1   15    7
 0.1625713084654032    3    1   15    8
 -0.07220661629359089    3    1   15    9
 -0.02482939544158397    3    1   15   10
 -0.1884732541900032    3    1   15   11
 -0.001038970623126885    3    1   16    2
 0.01024934322214062    3    1   16    3
 0.002207811991994087    3    1   16    4
 0.0001611278942438414    3    1   16    5
 0.01111124546383622    3    1   16   12
 0.3447933549468221    3    1   16   13
 0.1655639908734127    3    1   16   14
 0.1224493642326833    3    1   16   15
 0.001353972648570761    3    2    1    1
 0.00331702465727672    3    2    2    2
 0.2071803757184175    3    2    3    2
 0.01527903328877302    3    2    3    3
 -0.000541174495100996    3    2    4    2
 -0.02401428028610284    3    2    4    3
 -0.01123830236223063    3    2    4    4
 -0.05310175386656428    3    2    5    2
 0.1374390637626039    3    2    5    3
 0.07317147779654856    3    2    5    4
 -0.007297182810225469    3    2    5    5
 0.09175214313516324    3    2    6    1
 0.03120415174409604    3    2    6    6
 -0.009223183093196488    3    2    7    1
 -0.1213359395241271    3    2    7    6
 0.03988939857154469    3    2    7    7
 0.2209820745143076    3    2    8    1
 -0.07402394052015514    3    2    8    6
 -0.0584837461862275    3    2    8    7
 -0.02733270612218749    3    2    8    8
 -0.02439174080304033    3    2    9    1
 0.02073088156585983    3    2    9    6
 0.1183667569084644    3    2    9    7
 -0.006565295067968394    3    2    9    8
 0.02288883679885975    3    2    9    9
 0.0682434011473248    3    2   10    1
 -0.04321205125115679    3    2   10    6
 -0.1284917165944585    3    2   10    7
 -0.13511793842287    3    2   10    8
 0.002898401583312697    3    2   10    9
 -0.1010349829921039    3    2   10   10
 0.1336466962991128    3    2   11    1
 0.05871418241761574    3    2   11    6
 -0.2318548982059739    3    2   11    7
 -0.07926726208460859    3    2   11    8
 0.07789448881374714    3    2   11    9
 -0.0304539145519518    3    2   11   10
 0.03551444984243578    3    2   11   11
 -0.05049882548776791    3    2   12    2
 0.0104084066534122    3    2   12    3
 0.09418045897499037    3    2   12    4
 0.06998198443303373    3    2   12    5
 0.06636181370815648    3    2   12   12
 -0.1647145870001939    3    2   13    2
 0.182027139824182    3    2   13    3
 -0.06219713837421369    3    2   13    4
 -0.1196409697535125    3    2   13    5
 0.135695134426024    3    2   13   12
 -0.2142530371941691    3    2   13   13
 -0.01807830470035241    3    2   14    2
 -0.2019023788871719    3    2   14    3
 -0.1138410402898319    3    2   14    4
 -0.05267310385424728    3    2   14    5
 0.006378257625366585    3    2   14   12
 0.111525965354405    3    2   14   13
 0.1528214480312857    3    2   14   14
 -0.01421344466607193    3    2   15    2
 0.003825673838977336    3    2   15    3
 -0.0633505241520594    3    2   15    4
 -0.002190760846400791    3    2   15    5
 -0.03129864366459931    3    2   15   12
 0.08769151322815841    3    2   15   13
 0.08749821475642081    3    2   15   14
 -0.004990797318867551    3    2   15   15
 -0.00103897062312688    3    2   16    1
 -0.09254879046218603    3    2   16    6
 -0.0822596454933136    3    2   16    7
 -0.1015936846490978    3    2   16    8
 -0.003322503102466492    3    2   16    9
 0.007551727008371438    3    2   16   10
 -0.2273996425963965    3    2   16   11
 -0.002483120491216779    3    2   16   16
 0.4053657194270285    3    3    1    1
 0.2071803757184175    3    3    2    2
 0.01527903328877299    3    3    3    2
 0.7911876876174568    3    3    3    3
 -0.02401428028610284    3    3    4    2
 -0.06114820798230923    3    3    4    3
 0.2976129751822295    3    3    4    4
 0.1374390637626039    3    3    5    2
 0.01037892069126187    3    3    5    3
 0.03387956326180041    3    3    5    4
 0.1400609363434733    3    3    5    5
 -0.04873337247791378    3    3    6    1
 0.1698907883188419    3    3    6    6
 -0.311925775575419    3    3    7    1
 -0.009717285636114587    3    3    7    6
 0.4661861260662233    3    3    7    7
 0.06048453263064701    3    3    8    1
 0.04533344813680304    3    3    8    6
 -0.1152831669927231    3    3    8    7
 0.4458426618129122    3    3    8    8
 -0.2193755270326525    3    3    9    1
 0.0691564202669724    3    3    9    6
 0.1339322707738602    3    3    9    7
 -0.2575051354256101    3    3    9    8
 0.3555443700551671    3    3    9    9
 -0.07929600491114301    3    3   10    1
 0.07693590973474305    3    3   10    6
 0.0007053339814008212    3    3   10    7
 0.1962249899684949    3    3   10    8
 -0.0758260453680647    3    3   10    9
 0.1883767986975576    3    3   10   10
 -0.02691669036077602    3    3   11    1
 0.2699872710115935    3    3   11    6
 0.07645353963766362    3    3   11    7
 -0.001990592166971182    3    3   11    8
 0.07513338351284715    3    3   11    9
 0.03737862286819947    3    3   11   10
 0.5721117103837269    3    3   11   11
 0.01040840665341219    3    3   12    2
 0.1982263005979847    3    3   12    3
 -0.165471815544825    3    3   12    4
 0.003300905751115221    3    3   12    5
 0.2157273051357313    3    3   12   12
 0.182027139824182    3    3   13    2
 0.08925647852359817    3    3   13    3
 -0.1433538589100411    3    3   13    4
 0.12915205184736    3    3   13    5
 0.0425533064038955    3    3   13   12
 0.6790715721930261    3    3   13   13
 -0.2019023788871719    3    3   14    2
 -0.02353678236202911    3    3   14    3
 -0.1187976636985126    3    3   14    4
 -0.1835014772847458    3    3   14    5
 -0.008875334036360828    3    3   14   12
 0.1003082292949882    3    3   14   13
 0.4192323612094452    3    3   14   14
 0.003825673838977332    3    3   15    2
 0.1772900453450989    3    3   15    3
 -0.1998676808726585    3    3   15    4
 -0.06242676826668606    3    3   15    5
 0.157461716193579    3    3   15   12
 0.1803644843952389    3    3   15   13
 0.1476369642789038    3    3   15   14
 0.2499267866002186    3    3   15   15
 0.0102493432221406    3    3   16    1
 -0.1125529904132605    3    3   16    6
 0.09209026939177502    3    3   16    7
 0.2036393084850991    3    3   16    8
 -0.2871344266335066    3    3   16    9
 0.05603017117065651    3    3   16   10
 -0.1079328556106952    3    3   16   11
 0.3966818252385419    3    3   16   16
 -0.001997282551347082    4    1    2    1
 0.002778383991242469    4    1    3    1
 0.4068404370793903    4    1    4    1
 -0.006289606857026025    4    1    5    1
 0.034103470021534    4    1    6    2
 0.05682237573413168    4    1    6    3
 -0.06269379692903254    4    1    6    4
 0.03632186539241158    4    1    6    5
 -0.1154902015403399    4    1    7    2
 0.01832276878794644    4    1    7    3
 0.2470743746813629    4    1    7    4
 -0.06242816971665378    4    1    7    5
 -0.1048025529997364    4    1    8    2
 -0.1806931425814459    4    1    8    3
 -0.1020205272423684    4    1    8    4
 0.1320928892559957    4    1    8    5
 0.08198589362348901    4    1    9    2
 0.06784015679739697    4    1    9    3
 -0.2096912098567089    4    1    9    4
 0.09346780586476255    4    1    9    5
 0.2638119345147078    4    1   10    2
 -0.1419535570557552    4    1   10    3
 0.0324233776893267    4    1   10    4
 -0.1457208238828694    4    1   10    5
 0.02669547052611466    4    1   11    2
 0.2530696570802627    4    1   11    3
 0.1222319733850185    4    1   11    4
 0.05621691780693657    4    1   11    5
 -0.01206414459766302    4    1   12    1
 0.002514309938436165    4    1   12    6
 0.07024836078637532    4    1   12    7
 0.2392796231853445    4    1   12    8
 0.2444830777959251    4    1   12    9
 0.08703387337449976    4    1   12   10
 -0.1053391815904007    4    1   12   11
 0.004868588409383165    4    1   13    1
 -0.02044206129356215    4    1   13    6
 0.1894549150181487    4    1   13    7
 -0.1263780707538312    4    1   13    8
 0.02447057826448459    4    1   13    9
 -0.1672193347764573    4    1   13   10
 0.1231337753120483    4    1   13   11
 0.01029475774356853    4    1   14    1
 -0.1207733356421266    4    1   14    6
 0.1285246427277451    4    1   14    7
 -0.1173682443262173    4    1   14    8
 0.0858676953165355    4    1   14    9
 -0.1156401043380532    4    1   14   10
 0.01561670019596746    4    1   14   11
 -0.02102959689373626    4    1   15    1
 0.06650568050426339    4    1   15    6
 0.178831063080607    4    1   15    7
 -0.1537988591312965    4    1   15    8
 -0.06643257835411527    4    1   15    9
 0.2996978967213008    4    1   15   10
 -0.1247712214539689    4    1   15   11
 0.0005413104952823704    4    1   16    2
 0.002207811991994096    4    1   16    3
 0.01459122635272541    4    1   16    4
 -0.001030150746821836    4    1   16    5
 -0.2397620506069778    4    1   16   12
 -0.002422683057833132    4    1   16   13
 0.2131847924062431    4    1   16   14
 -0.2450146855665906    4    1   16   15
 -0.001997282551347096    4    2    1    1
 0.0624555103337097    4    2    2    2
 -0.000541174495101008    4    2    3    2
 -0.02401428028610284    4    2    3    3
 0.254134841311489    4    2    4    2
 -0.01123830236223063    4    2    4    3
 -0.05202211957389628    4    2    4    4
 0.0692440082093599    4    2    5    2
 0.07317147779654856    4    2    5    3
 -0.09152150899841779    4    2    5    4
 0.01211811951601922    4    2    5    5
 0.034103470021534    4    2    6    1
 0.04622048334508821    4    2    6    6
 -0.1154902015403399    4    2    7    1
 0.007600187718480427    4    2    7    6
 -0.06897599354668682    4    2    7    7
 -0.1048025529997364    4    2    8    1
 0.0317838701369054    4    2    8    6
 -0.1563949459861038    4    2    8    7
 -0.2350171734539579    4    2    8    8
 0.08198589362348903    4    2    9    1
 -0.0922959995634989    4    2    9    6
 -0.09002792515820786    4    2    9    7
 -0.04181302245227018    4    2    9    8
 0.1566285047125155    4    2    9    9
 0.2638119345147078    4    2   10    1
 -0.07613257418957783    4    2   10    6
 0.208603796782334    4    2   10    7
 -0.00486631893085012    4    2   10    8
 0.0509039674181774    4    2   10    9
 0.07484059860649046    4    2   10   10
 0.02669547052611465    4    2   11    1
 0.04557556395656533    4    2   11    6
 -0.1198951510287849    4    2   11    7
 0.1160199167427679    4    2   11    8
 0.07370159801196166    4    2   11    9
 0.04407464229481947    4    2   11   10
 0.02807195581086732    4    2   11   11
 0.2723786232255843    4    2   12    2
 0.09418045897499036    4    2   12    3
 0.003199198145739346    4    2   12    4
 -0.107535542020047    4    2   12    5
 -0.2831995778789166    4    2   12   12
 0.008567298867838927    4    2   13    2
 -0.06219713837421369    4    2   13    3
 -0.1159991908655431    4    2   13    4
 -0.0351593445946219    4    2   13    5
 -0.0587849833376568    4    2   13   12
 -0.07239472346578428    4    2   13   13
 0.1030614961991739    4    2   14    2
 -0.1138410402898319    4    2   14    3
 -0.07445959829142698    4    2   14    4
 -0.01997921216012779    4    2   14    5
 0.1303166021683817    4    2   14   12
 -0.05139790717375314    4    2   14   13
 0.1855816630618916    4    2   14   14
 -0.089050977200426    4    2   15    2
 -0.06335052415205941    4    2   15    3
 0.1741666937221608    4    2   15    4
 -0.0790869055313132    4    2   15    5
 -0.03875929563679004    4    2   15   12
 0.03948634277745635    4    2   15   13
 -0.04680661806873303    4    2   15   14
 0.171475408293078    4    2   15   15
 0.0005413104952823634    4    2   16    1
 -0.07864131011805306    4    2   16    6
 0.0473860837287777    4    2   16    7
 0.1710815266346699    4    2   16    8
 0.2349075971074487    4    2   16    9
 -0.03472561656437603    4    2   16   10
 -0.07043222051467336    4    2   16   11
 0.000228907077028679    4    2   16   16
 0.002778383991242462    4    3    1    1
 -0.000541174495101008    4    3    2    2
 -0.02401428028610282    4    3    3    2
 -0.06114820798230924    4    3    3    3
 -0.01123830236223063    4    3    4    2
 0.2976129751822295    4    3    4    3
 0.06392150967183401    4    3    4    4
 0.07317147779654856    4    3    5    2
 0.0338795632618004    4    3    5    3
 0.04902923081500946    4    3    5    4
 -0.001507369315371609    4    3    5    5
 0.05682237573413169    4    3    6    1
 0.04553458744372631    4    3    6    6
 0.01832276878794644    4    3    7    1
 -0.1127003409077521    4    3    7    6
 -0.006830867183601215    4    3    7    7
 -0.1806931425814459    4    3    8    1
 0.1034326388043144    4    3    8    6
 -0.02176773017006368    4    3    8    7
 -0.08467711660167346    4    3    8    8
 0.06784015679739698    4    3    9    1
 -0.02379553950016968    4    3    9    6
 -0.1393560052322001    4    3    9    7
 0.1566112511901049    4    3    9    8
 -0.1427373464838916    4    3    9    9
 -0.1419535570557552    4    3   10    1
 0.04023990254425235    4    3   10    6
 -0.09397656204066411    4    3   10    7
 0.1533850901031831    4    3   10    8
 0.1550422805488523    4    3   10    9
 -0.009983017628626349    4    3   10   10
 0.2530696570802627    4    3   11    1
 0.02879849357042897    4    3   11    6
 -0.07372470527951255    4    3   11    7
 0.008586816236791498    4    3   11    8
 -0.1684316852578963    4    3   11    9
 -0.05423911334842235    4    3   11   10
 0.1943295026800485    4    3   11   11
 0.09418045897499037    4    3   12    2
 -0.165471815544825    4    3   12    3
 -0.1519221398571024    4    3   12    4
 -0.01664252651621767    4    3   12    5
 0.01051726432206524    4    3   12   12
 -0.06219713837421369    4    3   13    2
 -0.1433538589100411    4    3   13    3
 0.1868593461965679    4    3   13    4
 -0.03711208100961116    4    3   13    5
 -0.2075177079393099    4    3   13   12
 -0.07334847702892178    4    3   13   13
 -0.1138410402898319    4    3   14    2
 -0.1187976636985126    4    3   14    3
 0.09551906947841182    4    3   14    4
 -0.09500837549969846    4    3   14    5
 -0.1255933302493559    4    3   14   12
 0.0571259398377629    4    3   14   13
 0.2174767876082253    4    3   14   14
 -0.06335052415205941    4    3   15    2
 -0.1998676808726585    4    3   15    3
 -0.1138422954324843    4    3   15    4
 0.03144529090444832    4    3   15    5
 0.0007034348742540301    4    3   15   12
 -0.1424982578499941    4    3   15   13
 -0.0001932509328891122    4    3   15   14
 -0.155370332780422    4    3   15   15
 0.002207811991994096    4    3   16    1
 -0.04713342541400511    4    3   16    6
 0.268275673102687    4    3   16    7
 -0.1890271537462764    4    3   16    8
 0.04040047879179498    4    3   16    9
 -0.08976208984036066    4    3   16   10
 0.06298570278651229    4    3   16   11
 0.001585873782775196    4    3   16   16
 0.4068404370793903    4    4    1    1
 0.254134841311489    4    4    2    2
 -0.01123830236223062    4    4    3    2
 0.2976129751822295    4    4    3    3
 -0.05202211957389629    4    4    4    2
 0.06392150967183402    4    4    4    3
 0.7373206124814138    4    4    4    4
 -0.09152150899841779    4    4    5    2
 0.04902923081500946    4    4    5    3
 -0.1337527582848538    4    4    5    4
 0.1478311768393999    4    4    5    5
 -0.06269379692903254    4    4    6    1
 0.07270115558292581    4    4    6    6
 0.2470743746813628    4    4    7    1
 -0.06799264858636711    4    4    7    6
 0.4202716669204661    4    4    7    7
 -0.1020205272423683    4    4    8    1
 0.006539538101708439    4    4    8    6
 -0.1744001797682359    4    4    8    7
 0.4444947083187012    4    4    8    8
 -0.2096912098567089    4    4    9    1
 0.01769002574828095    4    4    9    6
 -0.1131275705052777    4    4    9    7
 0.1710784787269309    4    4    9    8
 0.3292127766688142    4    4    9    9
 0.0324233776893267    4    4   10    1
 0.07521226968591996    4    4   10    6
 0.0168022398449747    4    4   10    7
 -0.06581128918821509    4    4   10    8
 -0.07580819112007431    4    4   10    9
 0.6298203785538777    4    4   10   10
 0.1222319733850185    4    4   11    1
 -0.003303598538172608    4    4   11    6
 0.04091871710075717    4    4   11    7
 -0.1723214050184022    4    4   11    8
 -0.02677657227713692    4    4   11    9
 -0.24217269479078    4    4   11   10
 0.2978758018815815    4    4   11   11
 0.003199198145739345    4    4   12    2
 -0.1519221398571024    4    4   12    3
 -0.1612355770284122    4    4   12    4
 0.07890669307285689    4    4   12    5
 0.4764528913653964    4    4   12   12
 -0.115999190865543    4    4   13    2
 0.1868593461965679    4    4   13    3
 0.1533919242490967    4    4   13    4
 0.01153752082905098    4    4   13    5
 -0.08046199392367462    4    4   13   12
 0.2242421288393976    4    4   13   13
 -0.07445959829142698    4    4   14    2
 0.09551906947841186    4    4   14    3
 0.0735363110414549    4    4   14    4
 -0.003347742022382747    4    4   14    5
 -0.1420468889041461    4    4   14   12
 0.1504151637914254    4    4   14   13
 0.2692735908140194    4    4   14   14
 0.1741666937221608    4    4   15    2
 -0.1138422954324843    4    4   15    3
 0.1647572103187436    4    4   15    4
 -0.2260040736775199    4    4   15    5
 0.1338557254095634    4    4   15   12
 -0.0348146531235719    4    4   15   13
 -0.1513450805166383    4    4   15   14
 0.5931317831666491    4    4   15   15
 0.01459122635272539    4    4   16    1
 -0.1017882759340737    4    4   16    6
 -0.09115423498624788    4    4   16    7
 -0.1027801628241645    4    4   16    8
 -0.05127749957213593    4    4   16    9
 -0.2924796722199409    4    4   16   10
 0.1410024060101746    4    4   16   11
 0.3987830749942398    4    4   16   16
 0.003411141136275304    5    1    2    1
 0.002262994353160507    5    1    3    1
 -0.006289606857026025    5    1    4    1
 0.247613364749324    5    1    5    1
 0.007144959520925524    5    1    6    2
 0.09551587575601871    5    1    6    3
 0.03632186539241158    5    1    6    4
 0.3894455481339296    5    1    6    5
 -0.1893271114052139    5    1    7    2
 -0.01924937784947331    5    1    7    3
 -0.06242816971665376    5    1    7    4
 0.04946034188876723    5    1    7    5
 -0.1082101506473629    5    1    8    2
 0.06353070029456791    5    1    8    3
 0.1320928892559957    5    1    8    4
 -0.04962225698649373    5    1    8    5
 0.01067094254171472    5    1    9    2
 -0.05712330417335327    5    1    9    3
 0.09346780586476255    5    1    9    4
 0.07561957381660575    5    1    9    5
 -0.02988492195986049    5    1   10    2
 0.1141562461846335    5    1   10    3
 -0.1457208238828694    5    1   10    4
 -0.03518908185887033    5    1   10    5
 0.02732053534259686    5    1   11    2
 0.1546924801136966    5    1   11    3
 0.05621691780693656    5    1   11    4
 -0.1701008674153454    5    1   11    5
 0.03665039706954544    5    1   12    1
 -0.107107229290559    5    1   12    6
 0.08794587911264096    5    1   12    7
 0.1482238564991913    5    1   12    8