 &FCI NORB=  14,NELEC= 8,MS2=2,
  ORBSYM=1,1,1,1,1,1,1,1,1,1,1,1,1,1
  ISYM=1,
 &END
 0.1987542428571428    1    1    1    1
 -1.60288449180257e-15    1    1    2    1
 0.1987542428571428    1    1    2    2
 0.198754242857143    1    1    3    3
 0.1987542428571431    1    1    4    4
 -1.328798182598234e-15    1    1    5    2
 0.1987542428571427    1    1    5    5
 0.1987542428571427    1    1    6    6
 -1.136243876764809e-15    1    1    7    5
 0.1987542428571427    1    1    7    7
 0.198754242857143    1    1    8    8
 0.1987542428571427    1    1    9    9
 1.155325835000554e-15    1    1   10    9
 0.1987542428571425    1    1   10   10
 0.1987542428571429    1    1   11   11
 1.242062008799394e-15    1    1   12   10
 0.1987542428571427    1    1   12   12
 0.1987542428571429    1    1   13   13
 -1.443289932012704e-15    1    1   14   12
 0.1987542428571428    1    1   14   14
 -1.599415044850616e-15    2    1    1    1
 0.1987542428571428    2    1    2    1
 -0.0130850805497753    2    1    4    2
 0.1399300010500393    2    1    4    3
 -1.325328735646281e-15    2    1    5    1
 0.1399300010500391    2    1    5    2
 0.01308508054977527    2    1    5    3
 0.1190803191253399    2    1    6    4
 -0.07464249542897988    2    1    6    5
 0.07464249542897994    2    1    7    4
 0.1190803191253397    2    1    7    5
 0.1215786944473389    2    1    8    6
 0.07049996867615382    2    1    8    7
 -0.07049996867615382    2    1    9    6
 0.1215786944473388    2    1    9    7
 -0.004310707371905979    2    1   10    8
 -0.1404743475827948    2    1   10    9
 -0.1404743475827949    2    1   11    8
 0.004310707371905938    2    1   11    9
 -0.1404665149237474    2    1   12   10
 -0.004558805987823069    2    1   12   11
 -2.272487753529617e-15    2    1   12   12
 -0.004558805987823013    2    1   13   10
 0.1404665149237478    2    1   13   11
 0.1986537739231323    2    1   14   12
 -0.006318794173985829    2    1   14   13
 1.859623566247137e-15    2    1   14   14
 0.1987542428571428    2    2    1    1
 0.2981313642857144    2    2    2    2
 0.09937712142857158    2    2    3    3
 -0.01308508054977529    2    2    4    1
 1.054711873393899e-15    2    2    4    3
 0.1987542428571431    2    2    4    4
 0.1399300010500391    2    2    5    1
 0.1987542428571429    2    2    5    5
 -0.06039066064129234    2    2    6    2
 0.0789226226803019    2    2    6    3
 0.1987542428571428    2    2    6    6
 0.0789226226803018    2    2    7    2
 0.06039066064129234    2    2    7    3
 0.1987542428571427    2    2    7    7
 0.09931824870512421    2    2    8    4
 -0.003420195546479848    2    2    8    5
 0.1987542428571431    2    2    8    8
 0.003420195546479848    2    2    9    4
 0.09931824870512403    2    2    9    5
 0.1987542428571429    2    2    9    9
 0.04719067525371456    2    2   10    6
 -0.08745771797004245    2    2   10    7
 0.1987542428571426    2    2   10   10
 -0.08745771797004238    2    2   11    6
 -0.04719067525371451    2    2   11    7
 0.1987542428571428    2    2   11   11
 0.006268572284915855    2    2   12    8
 0.09917921790848026    2    2   12    9
 0.2979304772040638    2    2   12   12
 -0.09917921790848042    2    2   13    8
 0.0062685722849158    2    2   13    9
 1.028691021254247e-15    2    2   13   11
 -0.006315600065997122    2    2   13   12
 0.09957800851022187    2    2   13   13
 -0.1402505765009106    2    2   14   10
 -0.009022212479225244    2    2   14   11
 1.755540157688529e-15    2    2   14   12
 0.1987542428571431    2    2   14   14
 0.198754242857143    3    1    3    1
 0.1399300010500393    3    1    4    2
 0.01308508054977525    3    1    4    3
 0.01308508054977527    3    1    5    2
 -0.1399300010500391    3    1    5    3
 0.07464249542898001    3    1    6    4
 0.1190803191253398    3    1    6    5
 -0.1190803191253399    3    1    7    4
 0.07464249542897983    3    1    7    5
 -0.07049996867615396    3    1    8    6
 0.1215786944473389    3    1    8    7
 -0.1215786944473388    3    1    9    6
 -0.07049996867615388    3    1    9    7
 0.1404743475827948    3    1   10    8
 -0.004310707371905914    3    1   10    9
 -0.00431070737190592    3    1   11    8
 -0.1404743475827949    3    1   11    9
 -0.004558805987823028    3    1   12   10
 0.1404665149237479    3    1   12   11
 0.1404665149237478    3    1   13   10
 0.004558805987822951    3    1   13   11
 -1.271552307891e-15    3    1   13   12
 0.006318794173985759    3    1   14   12
 0.1986537739231322    3    1   14   13
 0.09937712142857158    3    2    3    2
 0.1399300010500393    3    2    4    1
 1.054711873393899e-15    3    2    4    2
 0.01308508054977527    3    2    5    1
 0.07892262268030188    3    2    6    2
 0.06039066064129242    3    2    6    3
 0.06039066064129234    3    2    7    2
 -0.0789226226803019    3    2    7    3
 0.003420195546479833    3    2    8    4
 0.09931824870512414    3    2    8    5
 -0.09931824870512415    3    2    9    4
 0.003420195546479827    3    2    9    5
 0.08745771797004238    3    2   10    6
 0.04719067525371451    3    2   10    7
 0.04719067525371459    3    2   11    6
 -0.08745771797004247    3    2   11    7
 -0.09917921790848042    3    2   12    8
 0.006268572284915805    3    2   12    9
 0.006315600065997126    3    2   12   12
 -0.006268572284915801    3    2   13    8
 -0.09917921790848032    3    2   13    9
 0.09917623434692126    3    2   13   12
 -0.006315600065997132    3    2   13   13
 -0.009022212479225251    3    2   14   10
 0.1402505765009107    3    2   14   11
 1.333785512591668e-15    3    2   14   13
 0.198754242857143    3    3    1    1
 0.09937712142857157    3    3    2    2
 0.2981313642857146    3    3    3    3
 0.01308508054977525    3    3    4    1
 0.1987542428571432    3    3    4    4
 -0.1399300010500391    3    3    5    1
 0.1987542428571428    3    3    5    5
 0.06039066064129243    3    3    6    2
 -0.07892262268030183    3    3    6    3
 0.1987542428571429    3    3    6    6
 -0.0789226226803019    3    3    7    2
 -0.06039066064129227    3    3    7    3
 0.1987542428571429    3    3    7    7
 -0.09931824870512403    3    3    8    4
 0.003420195546479793    3    3    8    5
 0.1987542428571431    3    3    8    8
 -0.003420195546479869    3    3    9    4
 -0.09931824870512396    3    3    9    5
 0.1987542428571429    3    3    9    9
 -0.04719067525371455    3    3   10    6
 0.08745771797004231    3    3   10    7
 0.1987542428571427    3    3   10   10
 0.08745771797004248    3    3   11    6
 0.04719067525371454    3    3   11    7
 0.198754242857143    3    3   11   11
 -0.006268572284915855    3    3   12    8
 -0.09917921790848046    3    3   12    9
 0.09957800851022203    3    3   12   12
 0.09917921790848019    3    3   13    8
 -0.00626857228491578    3    3   13    9
 0.006315600065997093    3    3   13   12
 0.2979304772040641    3    3   13   13
 0.1402505765009104    3    3   14   10
 0.009022212479225241    3    3   14   11
 0.1987542428571428    3    3   14   14
 -0.01308508054977529    4    1    2    2
 0.1399300010500393    4    1    3    2
 0.01308508054977525    4    1    3    3
 0.1987542428571431    4    1    4    1
 0.1190803191253399    4    1    6    2
 0.07464249542898001    4    1    6    3
 0.07464249542897994    4    1    7    2
 -0.1190803191253399    4    1    7    3
 -0.008261451993746907    4    1    8    4
 0.1402974445163315    4    1    8    5
 -0.1402974445163316    4    1    9    4
 -0.008261451993746902    4    1    9    5
 0.1169329983948194    4    1   10    6
 0.07796344280016879    4    1   10    7
 0.07796344280016895    4    1   11    6
 -0.1169329983948195    4    1   11    7
 -0.1404767278290506    4    1   12    8
 -0.004232430188551769    4    1   12    9
 -1.745131816832668e-15    4    1   12   11
 -0.004165818905147126    4    1   12   12
 0.004232430188551831    4    1   13    8
 -0.1404767278290504    4    1   13    9
 0.140478718956672    4    1   13   12
 0.004165818905147124    4    1   13   13
 0.005763015478233694    4    1   14   10
 0.1986706739967271    4    1   14   11
 -0.01308508054977529    4    2    2    1
 0.1399300010500393    4    2    3    1
 1.061650767297806e-15    4    2    3    2
 0.1987542428571432    4    2    4    2
 0.1190803191253399    4    2    6    1
 0.04471124122111964    4    2    6    4
 0.08875087138668498    4    2    6    5
 0.07464249542897992    4    2    7    1
 -0.08875087138668497    4    2    7    4
 0.04471124122111953    4    2    7    5
 0.09931824870512421    4    2    8    2
 0.003420195546479834    4    2    8    3
 -0.0576386573498005    4    2    8    6
 0.08095429230338154    4    2    8    7
 0.003420195546479851    4    2    9    2
 -0.09931824870512415    4    2    9    3
 -0.08095429230338148    4    2    9    6
 -0.05763865734980042    4    2    9    7
 0.0993377771671935    4    2   10    4
 0.002796120689466263    4    2   10    5
 0.0991826955468865    4    2   10    8
 0.006213305680766766    4    2   10    9
 0.002796120689466296    4    2   11    4
 -0.09933777716719347    4    2   11    5
 0.006213305680766751    4    2   11    8
 -0.0991826955468865    4    2   11    9
 -0.08442884404754294    4    2   12    6
 -0.05241738791874983    4    2   12    7
 0.005760102312640517    4    2   12   10
 0.1985702473062138    4    2   12   11
 0.05241738791874996    4    2   13    6
 -0.08442884404754306    4    2   13    7
 -0.0001832177673541432    4    2   13   10
 -0.006316137353076005    4    2   13   11
 -0.1405402751925553    4    2   14    8
 0.0002357449023035786    4    2   14    9
 1.467576060676379e-15    4    2   14   11
 -0.008629812039449319    4    2   14   12
 0.140275268208697    4    2   14   13
 0.1399300010500393    4    3    2    1
 1.06512021424976e-15    4    3    2    2
 0.01308508054977524    4    3    3    1
 0.1987542428571432    4    3    4    3
 0.07464249542897999    4    3    6    1
 0.08875087138668517    4    3    6    4
 -0.04471124122111952    4    3    6    5
 -0.1190803191253399    4    3    7    1
 0.04471124122111955    4    3    7    4
 0.08875087138668494    4    3    7    5
 0.003420195546479834    4    3    8    2
 -0.09931824870512405    4    3    8    3
 0.0809542923033815    4    3    8    6
 0.05763865734980048    4    3    8    7
 -0.09931824870512415    4    3    9    2
 -0.003420195546479872    4    3    9    3
 -0.05763865734980058    4    3    9    6
 0.08095429230338154    4    3    9    7
 -0.002796120689466244    4    3   10    4
 0.09933777716719332    4    3   10    5
 0.006213305680766826    4    3   10    8
 -0.09918269554688652    4    3   10    9
 0.09933777716719348    4    3   11    4
 0.002796120689466268    4    3   11    5
 -0.09918269554688672    4    3   11    8
 -0.006213305680766845    4    3   11    9
 0.05241738791874997    4    3   12    6
 -0.0844288440475431    4    3   12    7
 0.0001832177673542507    4    3   12   10
 0.006316137353076111    4    3   12   11
 -1.328798182598234e-15    4    3   12   12
 0.0844288440475429    4    3   13    6
 0.05241738791874981    4    3   13    7
 0.005760102312640554    4    3   13   10
 0.1985702473062138    4    3   13   11
 -0.0002357449023036307    4    3   14    8
 -0.140540275192555    4    3   14    9
 0.1402752682086971    4    3   14   12
 0.008629812039449389    4    3   14   13
 1.182214048878194e-15    4    3   14   14
 0.1987542428571431    4    4    1    1
 0.1987542428571431    4    4    2    2
 0.1987542428571432    4    4    3    3
 0.2981313642857149    4    4    4    4
 0.09937712142857148    4    4    5    5
 0.04471124122111962    4    4    6    2
 0.08875087138668517    4    4    6    3
 0.198754242857143    4    4    6    6
 -0.088750871386685    4    4    7    2
 0.04471124122111954    4    4    7    3
 0.1987542428571429    4    4    7    7
 -0.008261451993746897    4    4    8    1
 0.1987542428571433    4    4    8    8
 -0.1402974445163316    4    4    9    1
 0.198754242857143    4    4    9    9
 0.09933777716719351    4    4   10    2
 -0.002796120689466242    4    4   10    3
 0.09954422401176619    4    4   10   10
 0.002796120689466306    4    4   11    2
 0.09933777716719348    4    4   11    3
 0.005760592341856077    4    4   11   10
 0.2979642617025196    4    4   11   11
 0.008826683936538161    4    4   12    4
 -0.09898435186489593    4    4   12    5
 0.005935807772077251    4    4   12    8
 -0.0991996897652508    4    4   12    9
 0.1987542428571432    4    4   12   12
 0.09898435186489592    4    4   13    4
 0.008826683936538125    4    4   13    5
 -0.09919968976525098    4    4   13    8
 -0.005935807772077381    4    4   13    9
 0.1987542428571431    4    4   13   13
 0.08132121445828852    4    4   14    6
 -0.1146232289105798    4    4   14    7
 0.1987542428571431    4    4   14   14
 -1.328798182598234e-15    5    1    2    1
 0.1399300010500391    5    1    2    2
 0.01308508054977526    5    1    3    2
 -0.1399300010500391    5    1    3    3
 0.1987542428571427    5    1    5    1
 -0.07464249542897988    5    1    6    2
 0.1190803191253398    5    1    6    3
 -1.148386941096646e-15    5    1    7    1
 0.1190803191253397    5    1    7    2
 0.07464249542897984    5    1    7    3
 0.1402974445163315    5    1    8    4
 0.008261451993746874    5    1    8    5
 -0.0082614519937469    5    1    9    4
 0.1402974445163312    5    1    9    5
 0.07796344280016876    5    1   10    6
 -0.1169329983948193    5    1   10    7
 -0.1169329983948194    5    1   11    6
 -0.07796344280016887    5    1   11    7
 -0.004232430188551742    5    1   12    8
 0.1404767278290503    5    1   12    9
 1.920338887906325e-15    5    1   12   10
 0.1404787189566715    5    1   12   12
 -0.1404767278290504    5    1   13    8
 -0.004232430188551819    5    1   13    9
 0.004165818905147179    5    1   13   12
 -0.1404787189566717    5    1   13   13
 -0.1986706739967267    5    1   14   10
 0.005763015478233716    5    1   14   11
 -1.325328735646281e-15    5    2    1    1
 0.1399300010500391    5    2    2    1
 0.01308508054977527    5    2    3    1
 0.1987542428571429    5    2    5    2
 -0.07464249542897985    5    2    6    1
 0.08875087138668498    5    2    6    4
 -0.04471124122111952    5    2    6    5
 0.1190803191253397    5    2    7    1
 0.04471124122111953    5    2    7    4
 0.08875087138668493    5    2    7    5
 -0.003420195546479834    5    2    8    2
 0.09931824870512414    5    2    8    3
 0.08095429230338147    5    2    8    6
 0.05763865734980047    5    2    8    7
 0.09931824870512403    5    2    9    2
 0.003420195546479834    5    2    9    3
 -0.05763865734980042    5    2    9    6
 0.08095429230338144    5    2    9    7
 0.002796120689466259    5    2   10    4
 -0.09933777716719336    5    2   10    5
 0.006213305680766737    5    2   10    8
 -0.09918269554688651    5    2   10    9
 -0.09933777716719344    5    2   11    4
 -0.002796120689466278    5    2   11    5
 -0.09918269554688657    5    2   11    8
 -0.006213305680766823    5    2   11    9
 -0.05241738791874983    5    2   12    6
 0.08442884404754294    5    2   12    7
 -0.1985702473062135    5    2   12   10
 0.005760102312640552    5    2   12   11
 -0.0844288440475429    5    2   13    6
 -0.05241738791874983    5    2   13    7
 0.006316137353076045    5    2   13   10
 -0.000183217767354164    5    2   13   11
 0.0002357449023036168    5    2   14    8
 0.1405402751925551    5    2   14    9
 -1.464106613724425e-15    5    2   14   10
 0.1402752682086969    5    2   14   12
 0.008629812039449382    5    2   14   13
 1.550842787523266e-15    5    2   14   14
 0.01308508054977526    5    3    2    1
 -0.1399300010500391    5    3    3    1
 0.1987542428571428    5    3    5    3
 0.1190803191253398    5    3    6    1
 -0.04471124122111952    5    3    6    4
 -0.08875087138668486    5    3    6    5
 0.07464249542897984    5    3    7    1
 0.08875087138668494    5    3    7    4
 -0.04471124122111941    5    3    7    5
 0.09931824870512412    5    3    8    2
 0.003420195546479791    5    3    8    3
 0.05763865734980046    5    3    8    6
 -0.08095429230338141    5    3    8    7
 0.003420195546479829    5    3    9    2
 -0.09931824870512396    5    3    9    3
 0.08095429230338133    5    3    9    6
 0.05763865734980041    5    3    9    7
 0.09933777716719332    5    3   10    4
 0.00279612068946631    5    3   10    5
 -0.09918269554688644    5    3   10    8
 -0.006213305680766803    5    3   10    9
 0.002796120689466259    5    3   11    4
 -0.09933777716719346    5    3   11    5
 -0.006213305680766799    5    3   11    8
 0.09918269554688655    5    3   11    9
 -0.084428844047543    5    3   12    6
 -0.05241738791874987    5    3   12    7
 -0.006316137353076022    5    3   12   10
 0.0001832177673541033    5    3   12   11
 0.05241738791874988    5    3   13    6
 -0.08442884404754279    5    3   13    7
 -0.1985702473062135    5    3   13   10
 0.005760102312640608    5    3   13   11
 1.013945871708444e-15    5    3   13   12
 -0.140540275192555    5    3   14    8
 0.000235744902303579    5    3   14    9
 0.008629812039449423    5    3   14   12
 -0.1402752682086966    5    3   14   13
 0.09937712142857148    5    4    5    4
 0.08875087138668498    5    4    6    2
 -0.04471124122111952    5    4    6    3
 0.04471124122111954    5    4    7    2
 0.08875087138668494    5    4    7    3
 0.1402974445163314    5    4    8    1
 -0.008261451993746897    5    4    9    1
 0.002796120689466256    5    4   10    2
 0.09933777716719332    5    4   10    3
 -0.005760592341856073    5    4   10   10
 -0.09933777716719347    5    4   11    2
 0.002796120689466258    5    4   11    3
 -0.09921001884537657    5    4   11   10
 0.005760592341856097    5    4   11   11
 -0.09898435186489593    5    4   12    4
 -0.008826683936538109    5    4   12    5
 -0.09919968976525076    5    4   12    8
 -0.005935807772077296    5    4   12    9
 0.008826683936538116    5    4   13    4
 -0.09898435186489568    5    4   13    5
 -0.005935807772077344    5    4   13    8
 0.09919968976525065    5    4   13    9
 -0.1146232289105796    5    4   14    6
 -0.08132121445828834    5    4   14    7
 0.1987542428571427    5    5    1    1
 0.1987542428571429    5    5    2    2
 0.1987542428571428    5    5    3    3
 0.09937712142857148    5    5    4    4
 0.2981313642857141    5    5    5    5
 -0.04471124122111952    5    5    6    2
 -0.08875087138668487    5    5    6    3
 0.1987542428571427    5    5    6    6
 0.08875087138668494    5    5    7    2
 -0.04471124122111942    5    5    7    3
 0.1987542428571427    5    5    7    7
 0.008261451993746888    5    5    8    1
 0.1987542428571429    5    5    8    8
 0.1402974445163312    5    5    9    1
 0.1987542428571428    5    5    9    9
 -0.09933777716719336    5    5   10    2
 0.002796120689466302    5    5   10    3
 0.2979642617025191    5    5   10   10
 -0.002796120689466264    5    5   11    2
 -0.09933777716719344    5    5   11    3
 -0.005760592341856073    5    5   11   10
 0.09954422401176626    5    5   11   11
 -0.008826683936538104    5    5   12    4
 0.09898435186489574    5    5   12    5
 -0.005935807772077278    5    5   12    8
 0.09919968976525062    5    5   12    9
 0.1987542428571427    5    5   12   12
 -0.09898435186489568    5    5   13    4
 -0.008826683936538141    5    5   13    5
 0.09919968976525052    5    5   13    8
 0.005935807772077315    5    5   13    9
 0.1987542428571427    5    5   13   13
 -0.08132121445828833    5    5   14    6
 0.1146232289105795    5    5   14    7
 0.1987542428571427    5    5   14   14
 0.1190803191253399    6    1    4    2
 0.07464249542897999    6    1    4    3
 -0.07464249542897985    6    1    5    2
 0.1190803191253398    6    1    5    3
 0.1987542428571427    6    1    6    1
 0.1215786944473389    6    1    8    2
 -0.07049996867615396    6    1    8    3
 -0.07049996867615384    6    1    9    2
 -0.1215786944473388    6    1    9    3
 0.1169329983948194    6    1   10    4
 0.07796344280016877    6    1   10    5
 0.07796344280016895    6    1   11    4
 -0.1169329983948194    6    1   11    5
 -0.06179741339011013    6    1   12    6
 -0.1262248162016878    6    1   12    7
 1.380839886877538e-15    6    1   12    8
 0.07430906412802137    6    1   12   10
 0.1192886730384559    6    1   12   11
 0.1262248162016879    6    1   13    6
 -0.06179741339011014    6    1   13    7
 -0.1192886730384559    6    1   13   10
 0.07430906412802148    6    1   13   11
 -0.1685818341973881    6    1   14    8
 -0.1052777955333434    6    1   14    9
 -0.06039066064129232    6    2    2    2
 0.07892262268030188    6    2    3    2
 0.06039066064129242    6    2    3    3
 0.1190803191253399    6    2    4    1
 0.04471124122111962    6    2    4    4
 -0.07464249542897988    6    2    5    1
 0.08875087138668498    6    2    5    4
 -0.04471124122111951    6    2    5    5
 0.1987542428571428    6    2    6    2
 0.1215786944473389    6    2    8    1
 -0.0576386573498005    6    2    8    4
 0.08095429230338147    6    2    8    5
 -0.07049996867615382    6    2    9    1
 -0.08095429230338147    6    2    9    4
 -0.05763865734980042    6    2    9    5
 0.04719067525371456    6    2   10    2
 0.08745771797004238    6    2   10    3
 0.0407791689162801    6    2   10    6
 0.09062489528780973    6    2   10    7
 -0.0497806799299011    6    2   10   10
 -0.08745771797004238    6    2   11    2
 0.04719067525371459    6    2   11    3
 0.09062489528780986    6    2   11    6
 -0.04077916891628017    6    2   11    7
 -0.08600986088319024    6    2   11   10
 0.04978067992990122    6    2   11   11
 -0.08442884404754294    6    2   12    4
 -0.05241738791874983    6    2   12    5
 -0.1684966172131774    6    2   12    8
 -0.1052245783152344    6    2   12    9
 -0.05525290441285752    6    2   12   12
 0.05241738791874996    6    2   13    4
 -0.0844288440475429    6    2   13    5
 0.005359553066406425    6    2   13    8
 0.003346991296906811    6    2   13    9
 0.0826010218906076    6    2   13   12
 0.05525290441285778    6    2   13   13
 -0.06577911411560633    6    2   14    6
 -0.124196347261198    6    2   14    7
 -1.457167719820518e-15    6    2   14    8
 0.07806392645965993    6    2   14   10
 0.1168659399164652    6    2   14   11
 0.0789226226803019    6    3    2    2
 0.06039066064129241    6    3    3    2
 -0.07892262268030185    6    3    3    3
 0.07464249542897999    6    3    4    1
 0.08875087138668517    6    3    4    4
 0.1190803191253398    6    3    5    1
 -0.04471124122111952    6    3    5    4
 -0.08875087138668486    6    3    5    5
 0.1987542428571429    6    3    6    3
 -0.07049996867615396    6    3    8    1
 0.08095429230338151    6    3    8    4
 0.05763865734980047    6    3    8    5
 -0.1215786944473388    6    3    9    1
 -0.05763865734980058    6    3    9    4
 0.08095429230338133    6    3    9    5
 0.08745771797004238    6    3   10    2
 -0.04719067525371455    6    3   10    3
 0.09062489528780994    6    3   10    6
 -0.04077916891628017    6    3   10    7
 -0.08600986088319036    6    3   10   10
 0.04719067525371459    6    3   11    2
 0.0874577179700425    6    3   11    3
 -0.04077916891628022    6    3   11    6
 -0.09062489528780998    6    3   11    7
 0.04978067992990123    6    3   11   10
 0.08600986088319028    6    3   11   11
 0.05241738791874997    6    3   12    4
 -0.084428844047543    6    3   12    5
 -0.005359553066406484    6    3   12    8
 -0.003346991296906771    6    3   12    9
 0.08260102189060761    6    3   12   12
 0.08442884404754288    6    3   13    4
 0.05241738791874988    6    3   13    5
 -0.1684966172131775    6    3   13    8
 -0.1052245783152344    6    3   13    9
 0.05525290441285789    6    3   13   12
 -0.08260102189060753    6    3   13   13
 0.124196347261198    6    3   14    6
 -0.06577911411560633    6    3   14    7
 -0.1168659399164651    6    3   14   10
 0.07806392645966002    6    3   14   11
 0.1190803191253399    6    4    2    1
 0.07464249542897999    6    4    3    1
 0.04471124122111964    6    4    4    2
 0.08875087138668517    6    4    4    3
 0.08875087138668498    6    4    5    2
 -0.04471124122111952    6    4    5    3
 0.198754242857143    6    4    6    4
 -0.0576386573498005    6    4    8    2
 0.08095429230338148    6    4    8    3
 0.04636548136787148    6    4    8    6
 0.08789797722902735    6    4    8    7
 -0.08095429230338148    6    4    9    2
 -0.05763865734980058    6    4    9    3
 -0.08789797722902723    6    4    9    6
 0.04636548136787138    6    4    9    7
 0.1169329983948194    6    4   10    1
 -0.004888145811945712    6    4   10    8
 -0.003052601828525904    6    4   10    9
 0.07796344280016895    6    4   11    1
 -0.1685109517268146    6    4   11    8
 -0.1052335300863605    6    4   11    9
 -0.08442884404754294    6    4   12    2
 0.05241738791874998    6    4   12    3
 0.09051045680808056    6    4   12    6
 -0.04103254162029962    6    4   12    7
 -0.08587025782850347    6    4   12   10
 0.05002110638415912    6    4   12   11
 -1.144917494144693e-15    6    4   12   12
 0.05241738791874996    6    4   13    2
 0.08442884404754289    6    4   13    3
 -0.04103254162029944    6    4   13    6
 -0.09051045680808063    6    4   13    7
 0.05002110638415893    6    4   13   10
 0.08587025782850366    6    4   13   11
 0.08132121445828852    6    4   14    4
 -0.1146232289105796    6    4   14    5
 0.1213931587705023    6    4   14   12
 0.07081896307188998    6    4   14   13
 1.27675647831893e-15    6    4   14   14
 -0.07464249542897988    6    5    2    1
 0.1190803191253398    6    5    3    1
 0.08875087138668498    6    5    4    2
 -0.04471124122111952    6    5    4    3
 -0.04471124122111951    6    5    5    2
 -0.08875087138668487    6    5    5    3
 0.1987542428571427    6    5    6    5
 0.08095429230338146    6    5    8    2
 0.05763865734980046    6    5    8    3
 -0.08789797722902724    6    5    8    6
 0.04636548136787137    6    5    8    7
 -0.05763865734980042    6    5    9    2
 0.08095429230338133    6    5    9    3
 -0.04636548136787136    6    5    9    6
 -0.08789797722902726    6    5    9    7
 0.07796344280016877    6    5   10    1
 0.1685109517268144    6    5   10    8
 0.1052335300863604    6    5   10    9
 -0.1169329983948194    6    5   11    1
 -0.004888145811945686    6    5   11    8
 -0.003052601828525834    6    5   11    9
 -0.05241738791874983    6    5   12    2
 -0.084428844047543    6    5   12    3
 -0.04103254162029947    6    5   12    6
 -0.09051045680808041    6    5   12    7
 0.05002110638415881    6    5   12   10
 0.08587025782850358    6    5   12   11
 -0.0844288440475429    6    5   13    2
 0.05241738791874989    6    5   13    3
 -0.09051045680808051    6    5   13    6
 0.0410325416202995    6    5   13    7
 0.08587025782850352    6    5   13   10
 -0.05002110638415898    6    5   13   11
 -0.1146232289105796    6    5   14    4
 -0.08132121445828833    6    5   14    5
 -0.07081896307188995    6    5   14   12
 0.1213931587705021    6    5   14   13
 0.1987542428571427    6    6    1    1
 0.1987542428571428    6    6    2    2
 0.1987542428571429    6    6    3    3
 0.198754242857143    6    6    4    4
 0.1987542428571427    6    6    5    5
 0.298131364285714    6    6    6    6
 0.0993771214285713    6    6    7    7
 0.04636548136787151    6    6    8    4
 -0.08789797722902723    6    6    8    5
 0.2423669485276728    6    6    8    8
 -0.08789797722902723    6    6    9    4
 -0.04636548136787137    6    6    9    5
 0.08929582390865068    6    6    9    8
 0.1551415371866128    6    6    9    9
 0.04077916891628011    6    6   10    2
 0.09062489528780994    6    6   10    3
 -0.09886228591304613    6    6   10    6
 -0.01010250896936576    6    6   10    7
 0.1987542428571425    6    6   10   10
 0.0906248952878099    6    6   11    2
 -0.04077916891628022    6    6   11    3
 0.01010250896936591    6    6   11    6
 -0.09886228591304619    6    6   11    7
 0.1987542428571427    6    6   11   11
 -0.06179741339011013    6    6   12    1
 0.09051045680808056    6    6   12    4
 -0.04103254162029948    6    6   12    5
 0.1987542428571427    6    6   12   12
 0.1262248162016879    6    6   13    1
 -0.04103254162029944    6    6   13    4
 -0.09051045680808051    6    6   13    5
 0.1987542428571428    6    6   13   13
 -0.06577911411560633    6    6   14    2
 0.124196347261198    6    6   14    3
 0.1987542428571427    6    6   14   14
 0.07464249542897992    7    1    4    2
 -0.1190803191253399    7    1    4    3
 -1.141448047192739e-15    7    1    5    1
 0.1190803191253397    7    1    5    2
 0.07464249542897983    7    1    5    3
 0.1987542428571427    7    1    7    1
 0.07049996867615382    7    1    8    2
 0.1215786944473389    7    1    8    3
 0.1215786944473388    7    1    9    2
 -0.07049996867615388    7    1    9    3
 0.0779634428001688    7    1   10    4
 -0.1169329983948193    7    1   10    5
 -0.1169329983948195    7    1   11    4
 -0.07796344280016887    7    1   11    5
 -0.1262248162016878    7    1   12    6
 0.06179741339011026    7    1   12    7
 -1.184816134092159e-15    7    1   12    9
 -0.1192886730384559    7    1   12   10
 0.07430906412802135    7    1   12   11
 -0.06179741339011013    7    1   13    6
 -0.1262248162016879    7    1   13    7
 -0.0743090641280213    7    1   13   10
 -0.1192886730384561    7    1   13   11
 -0.1052777955333433    7    1   14    8
 0.1685818341973881    7    1   14    9
 0.07892262268030178    7    2    2    2
 0.06039066064129234    7    2    3    2
 -0.0789226226803019    7    2    3    3
 0.07464249542897992    7    2    4    1
 -0.08875087138668497    7    2    4    4
 0.1190803191253397    7    2    5    1