 &FCI NORB=  16,NELEC=10,MS2=2,
  ORBSYM=1,1,1,1,1,1,1,1,1,1,1,1,1,1,1,1
  ISYM=1,
 &END
 0.1257419975650739    1    1    1    1
 0.1278399446810431    1    1    2    2
 -0.0002754781702018387    1    1    3    2
 0.1299323013542804    1    1    3    3
 0.0002031352606541807    1    1    4    2
 6.199060771290392e-05    1    1    4    3
 0.1283856425673688    1    1    4    4
 0.0005666918708773644    1    1    5    2
 -0.001312663719900064    1    1    5    3
 -0.001878420726486815    1    1    5    4
 0.1125796713109827    1    1    5    5
 -0.006084319729464325    1    1    6    1
 0.1150396087442316    1    1    6    6
 0.002760715837735505    1    1    7    1
 0.003058577679233623    1    1    7    6
 0.1249977614511561    1    1    7    7
 0.005193581539649533    1    1    8    1
 0.007996971693656131    1    1    8    6
 -0.002330435375911075    1    1    8    7
 0.1229470223407797    1    1    8    8
 -0.0009791381805959792    1    1    9    1
 -0.001447026856455913    1    1    9    6
 0.0003700945325394832    1    1    9    7
 0.00155051506585001    1    1    9    8
 0.1313993532924202    1    1    9    9
 0.000457289487801868    1    1   10    1
 0.001123733181892564    1    1   10    6
 -0.0003537602810440104    1    1   10    7
 -0.0006975197661149911    1    1   10    8
 0.0002623443605160817    1    1   10    9
 0.1313562218442377    1    1   10   10
 0.002440543950845778    1    1   11    1
 0.004677351880575694    1    1   11    6
 -0.001498832450604007    1    1   11    7
 -0.001254734987133962    1    1   11    8
 -0.0001464082294135284    1    1   11    9
 -0.001109817272219663    1    1   11   10
 0.1230879728519861    1    1   11   11
 -0.002768951638977375    1    1   12    2
 0.0005183353059165221    1    1   12    3
 0.0007833962971174734    1    1   12    4
 0.0006174508226807656    1    1   12    5
 0.1288950847059657    1    1   12   12
 -0.002576584693711119    1    1   13    2
 -0.001557346638601435    1    1   13    3
 -0.0007995746937485846    1    1   13    4
 -0.0005799511126731331    1    1   13    5
 -0.001066241772297622    1    1   13   12
 0.1290546393185333    1    1   13   13
 0.0004506457910026709    1    1   14    2
 0.0008193699250299662    1    1   14    3
 -0.002225440211298543    1    1   14    4
 0.002305258010134035    1    1   14    5
 0.0004458762923019097    1    1   14   12
 -0.0001003363309223862    1    1   14   13
 0.1287335234560052    1    1   14   14
 0.0005721182617213273    1    1   15    2
 -0.0004800755980815914    1    1   15    3
 0.002668374449818887    1    1   15    4
 0.01217720794080816    1    1   15    5
 0.0007198094841907237    1    1   15   12
 0.0009618171209981651    1    1   15   13
 -0.0005566545196239226    1    1   15   14
 0.1145791926058211    1    1   15   15
 -0.0005077339252636554    1    1   16    1
 -0.008009291638252775    1    1   16    6
 0.001240401665836087    1    1   16    7
 0.003201402134894716    1    1   16    8
 -0.0006684291289545835    1    1   16    9
 0.0003924479707938522    1    1   16   10
 0.002935026258899163    1    1   16   11
 0.1254300619101146    1    1   16   16
 0.1278399446810431    2    1    2    1
 -0.0002754781702018431    2    1    3    1
 0.000203135260654172    2    1    4    1
 0.0005666918708773644    2    1    5    1
 -0.05507476005356046    2    1    6    2
 -0.02714109479954358    2    1    6    3
 0.01714938221146278    2    1    6    4
 0.005210615235052729    2    1    6    5
 -0.03301180127689108    2    1    7    2
 -0.004916738224578941    2    1    7    3
 0.04281053055706403    2    1    7    4
 0.00383091562383931    2    1    7    5
 -0.0259459659686071    2    1    8    2
 -0.03701423854085609    2    1    8    3
 -0.02513206326662658    2    1    8    4
 0.05365529959285553    2    1    8    5
 0.02630779202923591    2    1    9    2
 -0.08643954643981859    2    1    9    3
 -0.0620976087160018    2    1    9    4
 0.0007482071749854698    2    1    9    5
 -0.01918635514448452    2    1   10    2
 -0.06071453120176384    2    1   10    3
 0.06689176240223559    2    1   10    4
 -0.01330260578400012    2    1   10    5
 0.08573308539259765    2    1   11    2
 -0.02071654240379274    2    1   11    3
 0.02097375627514395    2    1   11    4
 -0.07286202611908789    2    1   11    5
 -0.002768951638977382    2    1   12    1
 0.03211559900660112    2    1   12    6
 -0.04904025035207904    2    1   12    7
 -0.0548197470667789    2    1   12    8
 -0.06905328280326492    2    1   12    9
 0.009898628098353532    2    1   12   10
 0.05405681952406877    2    1   12   11
 -0.002576584693711111    2    1   13    1
 -0.006016847220420154    2    1   13    6
 -0.02249709969172205    2    1   13    7
 -0.06111955631257252    2    1   13    8
 0.09044278859925015    2    1   13    9
 0.03555835285921196    2    1   13   10
 0.01746028664960073    2    1   13   11
 0.0004506457910026657    2    1   14    1
 0.02425262187871935    2    1   14    6
 0.0413079529433699    2    1   14    7
 0.009319668289284221    2    1   14    8
 0.02987700196994654    2    1   14    9
 -0.07791673540693053    2    1   14   10
 0.0444587092843573    2    1   14   11
 0.0005721182617213238    2    1   15    1
 0.003259389670620382    2    1   15    6
 0.005686401501913848    2    1   15    7
 0.04849383415023484    2    1   15    8
 -0.009954192591988769    2    1   15    9
 0.004079677238037345    2    1   15   10
 -0.07880476387687267    2    1   15   11
 0.0008477267143977996    2    1   16    2
 0.00013429383381546    2    1   16    3
 0.0001169857155122519    2    1   16    4
 0.00027633831616289    2    1   16    5
 -0.1032907086053604    2    1   16   12
 -0.07500311867397461    2    1   16   13
 0.0004092820446286657    2    1   16   14
 -0.005113461856568798    2    1   16   15
 0.1278399446810431    2    2    1    1
 0.2333536355149937    2    2    2    2
 -0.002438554050035531    2    2    3    2
 0.1047239233477021    2    2    3    3
 -0.02111203798170798    2    2    4    2
 0.008041290269447202    2    2    4    3
 0.08878783687703787    2    2    4    4
 -0.06285924032993473    2    2    5    2
 0.001432727361253362    2    2    5    3
 -0.02814450591615837    2    2    5    4
 0.06763503716349623    2    2    5    5
 -0.05507476005356046    2    2    6    1
 0.04461622626657492    2    2    6    6
 -0.03301180127689109    2    2    7    1
 0.01875671264560236    2    2    7    6
 0.0609904735331868    2    2    7    7
 -0.0259459659686071    2    2    8    1
 0.01084668536550642    2    2    8    6
 0.03943622561201119    2    2    8    7
 0.1174714223701612    2    2    8    8
 0.02630779202923591    2    2    9    1
 -0.01725040827408223    2    2    9    6
 -0.004762564836575408    2    2    9    7
 0.01528006510971304    2    2    9    8
 0.197435039900505    2    2    9    9
 -0.01918635514448451    2    2   10    1
 0.01520104420928977    2    2   10    6
 -0.005687807185343353    2    2   10    7
 -0.02249023508515783    2    2   10    8
 0.005568729847672535    2    2   10    9
 0.1228363791143876    2    2   10   10
 0.08573308539259765    2    2   11    1
 -0.0136796565532115    2    2   11    6
 -0.03083917299861764    2    2   11    7
 -0.1086128399842206    2    2   11    8
 0.02197288279016927    2    2   11    9
 -0.003932557667433385    2    2   11   10
 0.2012313010028333    2    2   11   11
 0.03298465565487512    2    2   12    2
 0.04267351865041857    2    2   12    3
 0.04491952017671205    2    2   12    4
 -0.05737892304522318    2    2   12    5
 0.1945741156885364    2    2   12   12
 0.04734432207830021    2    2   13    2
 -0.05893021468482568    2    2   13    3
 -0.01813240179027837    2    2   13    4
 -0.04158333293947802    2    2   13    5
 0.05789040199621877    2    2   13   12
 0.1530361042942651    2    2   13   13
 0.02450911821029621    2    2   14    2
 -0.0005634207693677382    2    2   14    3
 -0.03067380075385812    2    2   14    4
 -0.01187046294855146    2    2   14    5
 -0.01675899893277628    2    2   14   12
 -0.007138772140280863    2    2   14   13
 0.08748559186069046    2    2   14   14
 -0.07000829081597497    2    2   15    2
 0.003242213712135768    2    2   15    3
 -0.01389369275746358    2    2   15    4
 0.0670507531522882    2    2   15    5
 -0.0476770246082597    2    2   15   12
 -0.03974580510276652    2    2   15   13
 -0.02683773898456768    2    2   15   14
 0.0704037552532794    2    2   15   15
 0.0008477267143977979    2    2   16    1
 -0.02093233388316339    2    2   16    6
 0.0537281980802217    2    2   16    7
 0.07951701352651255    2    2   16    8
 0.002497918966297833    2    2   16    9
 -0.02873571744382435    2    2   16   10
 -0.05321071752415579    2    2   16   11
 0.1275792131313088    2    2   16   16
 -0.0002754781702018448    3    1    2    1
 0.1299323013542804    3    1    3    1
 6.199060771290392e-05    3    1    4    1
 -0.001312663719900067    3    1    5    1
 -0.02714109479954358    3    1    6    2
 0.0123395725256891    3    1    6    3
 -0.004112597735683278    3    1    6    4
 -0.04402692947294768    3    1    6    5
 -0.004916738224578943    3    1    7    2
 0.02984515356906044    3    1    7    3
 0.07019044708446978    3    1    7    4
 -0.005274651163804512    3    1    7    5
 -0.03701423854085608    3    1    8    2
 0.08780880358372729    3    1    8    3
 -0.02679507418465279    3    1    8    4
 -0.05771345625125024    3    1    8    5
 -0.08643954643981859    3    1    9    2
 -0.05875497229378417    3    1    9    3
 0.04657259282409678    3    1    9    4
 0.001612886899842146    3    1    9    5
 -0.06071453120176384    3    1   10    2
 -0.04428859612277669    3    1   10    3
 -0.06122044098277132    3    1   10    4
 0.001940069388084811    3    1   10    5
 -0.02071654240379274    3    1   11    2
 0.02036489799776836    3    1   11    3
 0.001325342066094894    3    1   11    4
 -0.0446502614809377    3    1   11    5
 0.0005183353059165256    3    1   12    1
 -0.07343785122074299    3    1   12    6
 -0.0243624372249499    3    1   12    7
 -0.03100226693581799    3    1   12    8
 0.06219972073758721    3    1   12    9
 -0.0008766214763210097    3    1   12   10
 -0.02097412581058035    3    1   12   11
 -0.001557346638601432    3    1   13    1
 0.05153555205535833    3    1   13    6
 0.02471615583866775    3    1   13    7
 0.02233164229659006    3    1   13    8
 0.07053156688607234    3    1   13    9
 0.08938170955661991    3    1   13   10
 -0.04011223697389455    3    1   13   11
 0.0008193699250299627    3    1   14    1
 -0.03499761716746946    3    1   14    6
 0.06101771684495146    3    1   14    7
 -0.06140756424294465    3    1   14    8
 -0.04771721969597375    3    1   14    9
 0.03266540472738172    3    1   14   10
 0.002914956891656845    3    1   14   11
 -0.0004800755980815947    3    1   15    1
 -0.05011861695537518    3    1   15    6
 0.00497240740202243    3    1   15    7
 -0.05148770183305464    3    1   15    8
 0.0149903238435557    3    1   15    9
 -0.006819948627646993    3    1   15   10
 -0.04724720684865265    3    1   15   11
 0.00013429383381546    3    1   16    2
 0.0009488222228322025    3    1   16    3
 0.0001947632571332094    3    1   16    4
 0.0003854886468478472    3    1   16    5
 0.06970885500283633    3    1   16   12
 -0.09501455755599522    3    1   16   13
 0.04915407149568594    3    1   16   14
 -0.01431786154853415    3    1   16   15
 -0.0002754781702018396    3    2    1    1
 -0.002438554050035531    3    2    2    2
 0.1047239233477021    3    2    3    2
 0.02679922612707955    3    2    3    3
 0.008041290269447202    3    2    4    2
 0.003135849414712652    3    2    4    3
 -0.02433816104707597    3    2    4    4
 0.001432727361253361    3    2    5    2
 0.03151757522433419    3    2    5    3
 -0.003871834469964325    3    2    5    4
 -0.0004691311556146101    3    2    5    5
 -0.02714109479954358    3    2    6    1
 -0.02149933467651718    3    2    6    6
 -0.004916738224578941    3    2    7    1
 0.00977460589622843    3    2    7    6
 0.04919405641237903    3    2    7    7
 -0.03701423854085608    3    2    8    1
 -0.03030233290847325    3    2    8    6
 -0.0188020272163677    3    2    8    7
 -0.0574815887570965    3    2    8    8
 -0.08643954643981859    3    2    9    1
 0.05803671396733606    3    2    9    6
 -0.01028815950639095    3    2    9    7
 -0.03105129084397925    3    2    9    8
 0.002886280710792181    3    2    9    9
 -0.06071453120176384    3    2   10    1
 0.02817789947251065    3    2   10    6
 -0.007859193604301892    3    2   10    7
 -0.004475195612595655    3    2   10    8
 0.115503450421157    3    2   10    9
 0.002212378761148884    3    2   10   10
 -0.02071654240379274    3    2   11    1
 -0.0003596558571589211    3    2   11    6
 0.01821712535732423    3    2   11    7
 -0.009952492776329534    3    2   11    8
 -0.03058686865851508    3    2   11    9
 -0.01661209000361528    3    2   11   10
 0.02455128365067237    3    2   11   11
 0.04267351865041857    3    2   12    2
 -0.01168529138201056    3    2   12    3
 -0.04528407371408807    3    2   12    4
 -0.003913363977175703    3    2   12    5
 -0.09235472252730695    3    2   12   12
 -0.05893021468482568    3    2   13    2
 -0.09882126149171619    3    2   13    3
 0.01629221134969559    3    2   13    4
 0.02602351108065146    3    2   13    5
 0.02204516251359817    3    2   13   12
 0.1043267365278266    3    2   13   13
 -0.0005634207693677347    3    2   14    2
 0.03794929072898522    3    2   14    3
 0.06784023066017013    3    2   14    4
 -0.03059899819237557    3    2   14    5
 -0.01644067340604253    3    2   14   12
 -0.03181936594787031    3    2   14   13
 -0.01971548340410524    3    2   14   14
 0.003242213712135767    3    2   15    2
 0.02637736248397229    3    2   15    3
 -0.01369131316638635    3    2   15    4
 0.004596461190737582    3    2   15    5
 -0.00901340861350898    3    2   15   12
 0.03658614369266272    3    2   15   13
 -0.02073444880273085    3    2   15   14
 0.008190089529231856    3    2   15   15
 0.0001342938338154626    3    2   16    1
 0.03074046994699877    3    2   16    6
 0.005472922030675047    3    2   16    7
 0.01341658823549815    3    2   16    8
 -0.09014353547803872    3    2   16    9
 -0.05010865603978104    3    2   16   10
 0.04225969581630569    3    2   16   11
 0.0004124020688227514    3    2   16   16
 0.1299323013542804    3    3    1    1
 0.1047239233477021    3    3    2    2
 0.02679922612707955    3    3    3    2
 0.241363670156168    3    3    3    3
 0.003135849414712655    3    3    4    2
 -0.002438165439110134    3    3    4    3
 0.08996792831130832    3    3    4    4
 0.03151757522433419    3    3    5    2
 -0.05381180367834135    3    3    5    3
 0.009645059322306145    3    3    5    4
 0.05701664930271633    3    3    5    5
 0.01233957252568911    3    3    6    1
 0.1130727778015502    3    3    6    6
 0.02984515356906044    3    3    7    1
 0.009154508767566651    3    3    7    6
 0.08559521444113012    3    3    7    7
 0.08780880358372728    3    3    8    1
 0.09984575436006503    3    3    8    6
 -0.01190689141244914    3    3    8    7
 0.162503142709424    3    3    8    8
 -0.05875497229378416    3    3    9    1
 0.009896775129763185    3    3    9    6
 -0.004952938398694456    3    3    9    7
 -0.01171268475555787    3    3    9    8
 0.1854540869851872    3    3    9    9
 -0.0442885961227767    3    3   10    1
 0.03918492981556185    3    3   10    6
 -0.00862923027729192    3    3   10    7
 0.002252759458399042    3    3   10    8
 0.07251940704703057    3    3   10    9
 0.1404919187383832    3    3   10   10
 0.02036489799776836    3    3   11    1
 0.03562511334195485    3    3   11    6
 0.004168888781842547    3    3   11    7
 0.05490816472236841    3    3   11    8
 -0.03334755582536047    3    3   11    9
 -0.02215218403879469    3    3   11   10
 0.05594116799693012    3    3   11   11
 -0.01168529138201056    3    3   12    2
 -0.06424630108244703    3    3   12    3
 0.01752228209809656    3    3   12    4
 0.04821586434221915    3    3   12    5
 0.1239363300625034    3    3   12   12
 -0.09882126149171616    3    3   13    2
 -0.04252320882682897    3    3   13    3
 -0.009719809608093989    3    3   13    4
 -0.01244410415282752    3    3   13    5
 -0.0507700244313086    3    3   13   12
 0.208998896541558    3    3   13   13
 0.03794929072898522    3    3   14    2
 -0.01964044300264    3    3   14    3
 0.01589448149202275    3    3   14    4
 0.03546793944091087    3    3   14    5
 0.02569769889682285    3    3   14   12
 -0.05259446633733016    3    3   14   13
 0.1121597069343916    3    3   14   14
 0.02637736248397229    3    3   15    2
 -0.05035325224321224    3    3   15    3
 0.02295419003476904    3    3   15    4
 0.0567348400099666    3    3   15    5
 0.04715155540825112    3    3   15   12
 0.0009958388905204623    3    3   15   13
 0.02642949442037766    3    3   15   14
 0.06183289534365368    3    3   15   15
 0.0009488222228321947    3    3   16    1
 -0.08419605861760543    3    3   16    6
 -0.008538955480938163    3    3   16    7
 -0.05058105993807853    3    3   16    8
 -0.03744708009685056    3    3   16    9
 -0.05228837702868074    3    3   16   10
 0.02475836780784055    3    3   16   11
 0.1270093899731156    3    3   16   16
 0.000203135260654172    4    1    2    1
 6.199060771290565e-05    4    1    3    1
 0.1283856425673688    4    1    4    1
 -0.001878420726486819    4    1    5    1
 0.01714938221146278    4    1    6    2
 -0.004112597735683278    4    1    6    3
 -0.06036071803281749    4    1    6    4
 0.04714429558726122    4    1    6    5
 0.04281053055706403    4    1    7    2
 0.07019044708446978    4    1    7    3
 0.05690080935006872    4    1    7    4
 0.06535213551836459    4    1    7    5
 -0.02513206326662658    4    1    8    2
 -0.02679507418465279    4    1    8    3
 -0.003560340277068878    4    1    8    4
 -0.01911976936634593    4    1    8    5
 -0.0620976087160018    4    1    9    2
 0.04657259282409677    4    1    9    3
 0.0215362656392397    4    1    9    4
 -0.0004702895977798543    4    1    9    5
 0.06689176240223559    4    1   10    2
 -0.06122044098277131    4    1   10    3
 0.07091077985929495    4    1   10    4
 -0.009858749239517583    4    1   10    5
 0.02097375627514395    4    1   11    2
 0.001325342066094894    4    1   11    3
 -0.065659880896418    4    1   11    4
 0.008884230374280782    4    1   11    5
 0.0007833962971174804    4    1   12    1
 0.0108366753916407    4    1   12    6
 -0.007851134488188896    4    1   12    7
 0.03924302885340902    4    1   12    8
 0.08093806882375239    4    1   12    9
 -0.06172359696323822    4    1   12   10
 0.0445410565482099    4    1   12   11
 -0.0007995746937485854    4    1   13    1
 0.008411871375305677    4    1   13    6
 0.07695438742704509    4    1   13    7
 -0.04500626253771614    4    1   13    8
 0.007682272357888301    4    1   13    9
 -0.0242028525046403    4    1   13   10
 -0.01290609370611736    4    1   13   11
 -0.002225440211298543    4    1   14    1
 0.01155949521927496    4    1   14    6
 0.007109560578502969    4    1   14    7
 -0.02190157485332275    4    1   14    8
 -0.007167519754592263    4    1   14    9
 -0.105658632262294    4    1   14   10
 -0.06223292241057905    4    1   14   11
 0.002668374449818885    4    1   15    1
 0.003982164481542399    4    1   15    6
 0.09796779580360426    4    1   15    7
 -0.001288482391848555    4    1   15    8
 0.001904983762763573    4    1   15    9
 0.01066094587295388    4    1   15   10
 0.01817816198057329    4    1   15   11
 0.0001169857155122484    4    1   16    2
 0.0001947632571332094    4    1   16    3
 0.001257421227562214    4    1   16    4
 1.126778785120932e-05    4    1   16    5
 0.02815421466179085    4    1   16   12
 -0.0387682384420308    4    1   16   13
 -0.1182052074280042    4    1   16   14
 -0.008125260610543432    4    1   16   15
 0.0002031352606541702    4    2    1    1
 -0.02111203798170798    4    2    2    2
 0.0080412902694472    4    2    3    2
 0.003135849414712654    4    2    3    3
 0.08878783687703787    4    2    4    2
 -0.02433816104707597    4    2    4    3
 0.02666353662310707    4    2    4    4
 -0.02814450591615837    4    2    5    2
 -0.003871834469964326    4    2    5    3
 0.02912182304468716    4    2    5    4
 -0.008513870189969085    4    2    5    5
 0.01714938221146278    4    2    6    1
 -0.008350058140031752    4    2    6    6
 0.04281053055706403    4    2    7    1
 -0.02541025421843131    4    2    7    6
 0.002701375704248423    4    2    7    7
 -0.02513206326662658    4    2    8    1
 0.02278647523631597    4    2    8    6
 -0.008301871375551613    4    2    8    7
 0.008669588940050526    4    2    8    8
 -0.0620976087160018    4    2    9    1
 0.03718173027761797    4    2    9    6
 -0.01299511105964698    4    2    9    7
 -0.04239243556196177    4    2    9    8
 -0.09217359432938553    4    2    9    9
 0.0668917624022356    4    2   10    1
 -0.0398765844290395    4    2   10    6
 0.00238416583865931    4    2   10    7
 0.01993096979311666    4    2   10    8
 0.0109612903988368    4    2   10    9
 0.1074441841940308    4    2   10   10
 0.02097375627514395    4    2   11    1
 -0.0180593010068047    4    2   11    6
 -0.06257820903346445    4    2   11    7
 0.001343335947825879    4    2   11    8
 -0.01346323200571259    4    2   11    9
 -0.0007879346760559901    4    2   11   10
 -0.01823501419818518    4    2   11   11
 0.04491952017671205    4    2   12    2
 -0.04528407371408806    4    2   12    3
 -0.07076606077558059    4    2   12    4
 -0.002594742058488669    4    2   12    5
 -0.06144753888996086    4    2   12   12
 -0.01813240179027837    4    2   13    2
 0.01629221134969559    4    2   13    3
 0.01787231000309365    4    2   13    4
 -0.006737052634418225    4    2   13    5
 0.01125823741655634    4    2   13   12
 0.02710086052665965    4    2   13   13
 -0.03067380075385812    4    2   14    2
 0.06784023066017011    4    2   14    3
 -0.05329130110183309    4    2   14    4
 0.03812973503968224    4    2   14    5
 0.07305972310480956    4    2   14   12
 0.03521558581749851    4    2   14   13
 0.04127491971304875    4    2   14   14
 -0.01389369275746358    4    2   15    2
 -0.01369131316638635    4    2   15    3
 0.04177240824160742    4    2   15    4
 -0.009329083665807005    4    2   15    5
 -0.02243225674539966    4    2   15   12
 -0.005584824979426146    4    2   15   13
 0.03341133023790653    4    2   15   14
 -0.007101719215890697    4    2   15   15
 0.0001169857155122554    4    2   16    1
 -0.01396807897595392    4    2   16    6
 -0.04283653429857334    4    2   16    7
 -0.004772572681279496    4    2   16    8
 -0.06857455789142947    4    2   16    9
 0.06188587731484453    4    2   16   10
 -0.02993073304747303    4    2   16   11
 -0.0002596174313820553    4    2   16   16
 6.199060771290739e-05    4    3    1    1
 0.008041290269447204    4    3    2    2
 0.003135849414712653    4    3    3    2
 -0.002438165439110128    4    3    3    3
 -0.02433816104707597    4    3    4    2
 0.08996792831130832    4    3    4    3
 0.007821617971569043    4    3    4    4
 -0.003871834469964325    4    3    5    2
 0.009645059322306146    4    3    5    3
 0.04366647953784695    4    3    5    4
 -0.01349762877381294    4    3    5    5
 -0.004112597735683279    4    3    6    1
 -0.02572651949212929    4    3    6    6
 0.07019044708446978    4    3    7    1
 -0.03211654318809264    4    3    7    6
 0.06667582174732972    4    3    7    7
 -0.02679507418465279    4    3    8    1
 -0.02436393489656237    4    3    8    6
 -0.03325878172182826    4    3    8    7
 -0.007821988651760843    4    3    8    8
 0.04657259282409677    4    3    9    1
 -0.02436531092204552    4    3    9    6
 0.007579418648898079    4    3    9    7
 0.02923801127348108    4    3    9    8
 0.07278792602365665    4    3    9    9
 -0.06122044098277132    4    3   10    1
 0.03043999105721564    4    3   10    6
 -0.02034245892586985    4    3   10    7
 -0.01414137940982147    4    3   10    8
 0.005743675283063699    4    3   10    9
 -0.08641987151008024    4    3   10   10
 0.001325342066094898    4    3   11    1
 -0.02657785988601174    4    3   11    6
 -0.07807052952257879    4    3   11    7
 0.01443490623161789    4    3   11    8
 0.001068959101433162    4    3   11    9
 -0.005003236105115662    4    3   11   10
 -0.0191113525241099    4    3   11   11
 -0.04528407371408806    4    3   12    2
 0.01752228209809656    4    3   12    3
 0.04521786874823149    4    3   12    4
 -0.03641810049915672    4    3   12    5
 0.03234520751360652    4    3   12   12
 0.01629221134969559    4    3   13    2
 -0.009719809608093991    4    3   13    3
 0.06587583639497759    4    3   13    4
 0.018256918757265    4    3   13    5
 -0.02363061827963522    4    3   13   12
 0.030621364840731    4    3   13   13
 0.06784023066017011    4    3   14    2
 0.01589448149202274    4    3   14    3
 0.05387825521933862    4    3   14    4
 0.02618458003455819    4    3   14    5
 -0.05805483527754951    4    3   14   12
 0.03261550425686283    4    3   14   13
 -0.05948541872684363    4    3   14   14
 -0.01369131316638635    4    3   15    2
 0.02295419003476904    4    3   15    3
 0.05054905990417184    4    3   15    4
 -0.01164543248509645    4    3   15    5
 -0.02751035980127008    4    3   15   12
 0.02895301557135608    4    3   15   13
 0.0463797764038965    4    3   15   14
 -0.003408267655587591    4    3   15   15
 0.0001947632571332059    4    3   16    1
 0.003441213550132147    4    3   16    6
 -0.06983427994572977    4    3   16    7
 0.04589928502818769    4    3   16    8
 0.03461054491872614    4    3   16    9
 -0.05622800652471209    4    3   16   10
 0.007205689099584923    4    3   16   11
 -0.0004460062006194417    4    3   16   16
 0.1283856425673688    4    4    1    1
 0.08878783687703787    4    4    2    2
 -0.02433816104707597    4    4    3    2
 0.08996792831130832    4    4    3    3
 0.02666353662310707    4    4    4    2
 0.007821617971569033    4    4    4    3
 0.2575023862842024    4    4    4    4
 0.02912182304468716    4    4    5    2
 0.04366647953784695    4    4    5    3
 -0.004383911401943163    4    4    5    4
 0.05717280799092135    4    4    5    5
 -0.06036071803281749    4    4    6    1
 0.05203421821621826    4    4    6    6
 0.05690080935006871    4    4    7    1
 0.009323692494491286    4    4    7    6
 0.236628330229644    4    4    7    7
 -0.003560340277068874    4    4    8    1
 -0.01003778544486102    4    4    8    6
 -0.06669599579605394    4    4    8    7
 0.04540872100701874    4    4    8    8
 0.02153626563923971    4    4    9    1
 -0.01274132032344977    4    4    9    6
 0.01486077282296586    4    4    9    7
 0.02432351764512922    4    4    9    8
 0.1000711904644151    4    4    9    9
 0.07091077985929495    4    4   10    1
 -0.04100128096345181    4    4   10    6
 0.006594451517608568    4    4   10    7
 0.006765173004197372    4    4   10    8
 -0.07517026581597136    4    4   10    9
 0.2210372251824386    4    4   10   10
 -0.065659880896418    4    4   11    1
 0.03533331697888045    4    4   11    6
 -0.01593740188185917    4    4   11    7
 0.02494912061829979    4    4   11    8
 0.01019640544555592    4    4   11    9
 0.007472509850221857    4    4   11   10
 0.08929861254059747    4    4   11   11
 -0.07076606077558059    4    4   12    2
 0.04521786874823149    4    4   12    3
 -0.05260849504322802    4    4   12    4
 0.001933067865333835    4    4   12    5
 0.1138131928963157    4    4   12   12
 0.01787231000309365    4    4   13    2
 0.06587583639497759    4    4   13    3
 0.02605851040964871    4    4   13    4
 0.05062864009264634    4    4   13    5
 -0.01439638280921611    4    4   13   12
 0.08110725788959135    4    4   13   13
 -0.05329130110183309    4    4   14    2
 0.05387825521933862    4    4   14    3
 -0.02793970423104413    4    4   14    4
 0.01371797475871307    4    4   14    5
 -0.008792779175604767    4    4   14   12
 0.07338042583207414    4    4   14   13
 0.2301200078688599    4    4   14   14
 0.04177240824160741    4    4   15    2
 0.05054905990417184    4    4   15    3
 0.04037802460576854    4    4   15    4
 0.05186383353551824    4    4   15    5
 -0.005161040088949224    4    4   15   12
 0.05912031952666041    4    4   15   13
 -0.004524174646745737    4    4   15   14
 0.08152858188176471    4    4   15   15
 0.001257421227562217    4    4   16    1
 -0.009434552430717294    4    4   16    6
 -0.0372492111642292    4    4   16    7
 0.04171010292961438    4    4   16    8
 0.02169023465227148    4    4   16    9
 0.08934944824527433    4    4   16   10
 0.07027430839885584    4    4   16   11
 0.1271360597923003    4    4   16   16
 0.0005666918708773653    5    1    2    1
 -0.001312663719900066    5    1    3    1
 -0.001878420726486815    5    1    4    1
 0.1125796713109827    5    1    5    1
 0.00521061523505273    5    1    6    2
 -0.04402692947294768    5    1    6    3
 0.04714429558726121    5    1    6    4
 0.1149185187693929    5    1    6    5
 0.003830915623839307    5    1    7    2
 -0.005274651163804511    5    1    7    3
 0.06535213551836459    5    1    7    4
 -0.05756128152005797    5    1    7    5
 0.05365529959285553    5    1    8    2
 -0.05771345625125023    5    1    8    3
 -0.01911976936634592    5    1    8    4
 -0.06567083528739073    5    1    8    5
 0.0007482071749854709    5    1    9    2
 0.001612886899842145    5    1    9    3
 -0.0004702895977798549    5    1    9    4
 0.01244398647814472    5    1    9    5
 -0.01330260578400012    5    1   10    2