 &FCI NORB=  16,NELEC=10,MS2=2,
  ORBSYM=1,1,1,1,1,1,1,1,1,1,1,1,1,1,1,1
  ISYM=1,
 &END
 0.1354396998358983    1    1    1    1
 0.1379660438437605    1    1    2    2
 -7.07867792961751e-05    1    1    3    2
 0.1385171766217168    1    1    3    3
 0.0002430899214387779    1    1    4    2
 -0.0001369055654077815    1    1    4    3
 0.1389947119040486    1    1    4    4
 -0.00176161120751115    1    1    5    2
 -0.002697753629023681    1    1    5    3
 -0.001993525101192262    1    1    5    4
 0.1216211810831428    1    1    5    5
 -0.00636830784138058    1    1    6    1
 0.1264686087131464    1    1    6    6
 -0.001292971462700672    1    1    7    1
 -0.002302758976830455    1    1    7    6
 0.1363406125562231    1    1    7    7
 -0.006407367524425526    1    1    8    1
 -0.009681151000242475    1    1    8    6
 -0.002271917725448408    1    1    8    7
 0.1264504033578118    1    1    8    8
 -0.001635917389778229    1    1    9    1
 -0.002377107901391613    1    1    9    6
 -0.0007039796345492534    1    1    9    7
 -0.003863085740808109    1    1    9    8
 0.1404588481254626    1    1    9    9
 0.0002047202861493284    1    1   10    1
 0.0003945720679798363    1    1   10    6
 2.462435828190675e-05    1    1   10    7
 -0.0002810277033928254    1    1   10    8
 -9.746518405488389e-05    1    1   10    9
 0.141226196787354    1    1   10   10
 -0.001870099258502464    1    1   11    1
 -0.00197298471421742    1    1   11    6
 0.000438845396116736    1    1   11    7
 -0.000907196133633623    1    1   11    8
 0.0004652267155620046    1    1   11    9
 0.001665629322083252    1    1   11   10
 0.1355405862976697    1    1   11   11
 0.0007008978238501012    1    1   12    2
 -0.002488543327538595    1    1   12    3
 0.0003062144234431681    1    1   12    4
 -0.000184311099326298    1    1   12    5
 0.1388974740224577    1    1   12   12
 0.001854868814746315    1    1   13    2
 -0.0004113097211137784    1    1   13    3
 0.0007877838962878254    1    1   13    4
 -0.004841796972159328    1    1   13    5
 -0.0004064655901289188    1    1   13   12
 0.1376732876175751    1    1   13   13
 0.001949872173875396    1    1   14    2
 -4.108206569185428e-05    1    1   14    3
 -0.002202303309148847    1    1   14    4
 -0.001243196729499076    1    1   14    5
 -0.0001219604570934161    1    1   14   12
 -0.000517356623144004    1    1   14   13
 0.1385986869854731    1    1   14   14
 0.003185254184108043    1    1   15    2
 0.002101715398555039    1    1   15    3
 0.0007662527051336436    1    1   15    4
 0.01242508970583905    1    1   15    5
 0.0004280677974349494    1    1   15   12
 0.00446793772179908    1    1   15   13
 -0.0004269649625506836    1    1   15   14
 0.1249314379218257    1    1   15   15
 -0.0006327917654852192    1    1   16    1
 -0.006600452532889325    1    1   16    6
 -0.001637985067474059    1    1   16    7
 -0.006636802958989369    1    1   16    8
 -0.001925771110001013    1    1   16    9
 -0.0003261762924658372    1    1   16   10
 9.923652735233102e-05    1    1   16   11
 0.1352750443264347    1    1   16   16
 0.1379660438437605    2    1    2    1
 -7.078677929617076e-05    2    1    3    1
 0.0002430899214387779    2    1    4    1
 -0.001761611207511154    2    1    5    1
 -0.0409896215338761    2    1    6    2
 0.03505484795174721    2    1    6    3
 -0.0391859797155861    2    1    6    4
 -0.02405053774486175    2    1    6    5
 -0.008662908400392626    2    1    7    2
 0.0719264030900662    2    1    7    3
 0.0134846051492232    2    1    7    4
 0.03114825613476541    2    1    7    5
 -0.01731662683412777    2    1    8    2
 -0.02054361873397226    2    1    8    3
 0.05542153563976002    2    1    8    4
 0.05305826006051372    2    1    8    5
 -0.05336860861444266    2    1    9    2
 -0.08018787204709485    2    1    9    3
 -0.03344754901568352    2    1    9    4
 0.0426129595563025    2    1    9    5
 -0.08994711631567644    2    1   10    2
 0.01868979759452102    2    1   10    3
 -0.07089951837875114    2    1   10    4
 0.03165941564761433    2    1   10    5
 0.04362793824908313    2    1   11    2
 -0.02593488647467197    2    1   11    3
 -0.06437761478930783    2    1   11    4
 -0.05303798478828411    2    1   11    5
 0.0007008978238501012    2    1   12    1
 0.03406934539665463    2    1   12    6
 0.05622272512705082    2    1   12    7
 -0.07019591756358153    2    1   12    8
 0.05252215702868975    2    1   12    9
 -0.03700498130172976    2    1   12   10
 -0.02722957230081631    2    1   12   11
 0.001854868814746318    2    1   13    1
 0.003952239256939024    2    1   13    6
 -0.03849970477115671    2    1   13    7
 -0.01673863614452692    2    1   13    8
 -0.07975562167155789    2    1   13    9
 -0.0906355211051677    2    1   13   10
 -0.0577650811296223    2    1   13   11
 0.001949872173875398    2    1   14    1
 -0.04629625246172531    2    1   14    6
 0.006450709952640556    2    1   14    7
 0.005524147559263023    2    1   14    8
 0.0281269618927676    2    1   14    9
 0.0520913825900185    2    1   14   10
 -0.05656915686767029    2    1   14   11
 0.003185254184108043    2    1   15    1
 -0.0612506490087813    2    1   15    6
 0.03067829646906357    2    1   15    7
 0.01959021576932604    2    1   15    8
 -0.008844393397587597    2    1   15    9
 -0.01013988732104245    2    1   15   10
 -0.09061717028309516    2    1   15   11
 0.001417159807302466    2    1   16    2
 9.014641242786371e-05    2    1   16    3
 -0.0002272444500821084    2    1   16    4
 -0.0002680378773843115    2    1   16    5
 0.02760201063075494    2    1   16   12
 0.1107250467461766    2    1   16   13
 0.0744406444594756    2    1   16   14
 0.02345381324263106    2    1   16   15
 0.1379660438437605    2    2    1    1
 0.2450466812130349    2    2    2    2
 -0.002644768467393957    2    2    3    2
 0.103082269544467    2    2    3    3
 0.04014843066328237    2    2    4    2
 0.01025293800056172    2    2    4    3
 0.1081920227283604    2    2    4    4
 -0.05779235486373503    2    2    5    2
 -0.007769249684447576    2    2    5    3
 0.03107856141727211    2    2    5    4
 0.07504383158887967    2    2    5    5
 -0.0409896215338761    2    2    6    1
 0.08919888946224153    2    2    6    6
 -0.008662908400392621    2    2    7    1
 0.008420583120346058    2    2    7    6
 0.08818370298636073    2    2    7    7
 -0.01731662683412778    2    2    8    1
 -0.05415422784100084    2    2    8    6
 -0.01133713468236426    2    2    8    7
 0.09033997415099651    2    2    8    8
 -0.05336860861444266    2    2    9    1
 0.001741097053755305    2    2    9    6
 0.01094127680344189    2    2    9    7
 0.005528432481784307    2    2    9    8
 0.1571787666457185    2    2    9    9
 -0.08994711631567642    2    2   10    1
 0.01982227567889512    2    2   10    6
 0.02597352279042367    2    2   10    7
 0.02297713584322495    2    2   10    8
 0.09810841271325446    2    2   10    9
 0.1901289267992577    2    2   10   10
 0.04362793824908315    2    2   11    1
 0.05997673710545232    2    2   11    6
 -0.05394166053073461    2    2   11    7
 -0.04356796134951629    2    2   11    8
 0.01256356548425584    2    2   11    9
 0.01633984131920339    2    2   11   10
 0.1858049280604557    2    2   11   11
 -0.009866806042295095    2    2   12    2
 0.01974204183856427    2    2   12    3
 -0.01356232930308266    2    2   12    4
 -0.002142248074391816    2    2   12    5
 0.1076106990574221    2    2   12   12
 0.07254853143100613    2    2   13    2
 0.02794459914198588    2    2   13    3
 0.07867228632395426    2    2   13    4
 -0.03776554635159682    2    2   13    5
 0.02160664577977283    2    2   13   12
 0.2278344352314165    2    2   13   13
 -0.05022459551781225    2    2   14    2
 -0.007457855392343316    2    2   14    3
 0.01060723827600621    2    2   14    4
 0.05563111599188544    2    2   14    5
 0.01125230128375206    2    2   14   12
 0.02997990603145826    2    2   14   13
 0.1060753086540729    2    2   14   14
 -0.004963255683105388    2    2   15    2
 0.01819150536655679    2    2   15    3
 0.07831345924881142    2    2   15    4
 0.05604698448907769    2    2   15    5
 0.00944369693451334    2    2   15   12
 0.05455320639626222    2    2   15   13
 0.0690452143564713    2    2   15   14
 0.1043147519823465    2    2   15   15
 0.001417159807302459    2    2   16    1
 -0.02456775204809448    2    2   16    6
 -0.01015941206436261    2    2   16    7
 -0.02024315462973236    2    2   16    8
 -0.0385568324336293    2    2   16    9
 -0.05187217375930035    2    2   16   10
 -0.09860355656366319    2    2   16   11
 0.1383987680512091    2    2   16   16
 -7.078677929617423e-05    3    1    2    1
 0.1385171766217168    3    1    3    1
 -0.0001369055654077758    3    1    4    1
 -0.002697753629023683    3    1    5    1
 0.03505484795174722    3    1    6    2
 -0.06063135281982895    3    1    6    3
 0.0363348144323214    3    1    6    4
 0.05026092616297612    3    1    6    5
 0.07192640309006622    3    1    7    2
 0.09428293848699675    3    1    7    3
 0.01333352212925128    3    1    7    4
 0.05365368447478763    3    1    7    5
 -0.02054361873397227    3    1    8    2
 -0.04153052710717593    3    1    8    3
 -0.04980949850367193    3    1    8    4
 -0.01244223427881451    3    1    8    5
 -0.08018787204709484    3    1    9    2
 0.06663013150688714    3    1    9    3
 0.0660469829688466    3    1    9    4
 -0.01060879757499442    3    1    9    5
 0.01868979759452102    3    1   10    2
 0.03656823804328909    3    1   10    3
 -0.07435837332243417    3    1   10    4
 -0.007329754636877666    3    1   10    5
 -0.02593488647467197    3    1   11    2
 -0.008670871259271589    3    1   11    3
 -0.02104591118631555    3    1   11    4
 0.007189534495391489    3    1   11    5
 -0.002488543327538588    3    1   12    1
 -0.007315455493448448    3    1   12    6
 0.07996034656995255    3    1   12    7
 0.08205226610939315    3    1   12    8
 -0.05857415765689037    3    1   12    9
 -0.03386839090523174    3    1   12   10
 -0.03073286174909806    3    1   12   11
 -0.0004113097211137793    3    1   13    1
 -0.04293976882521554    3    1   13    6
 -0.097511215450133    3    1   13    7
 0.05642464569674635    3    1   13    8
 0.004439109055078796    3    1   13    9
 -0.01757258547659849    3    1   13   10
 0.02205073003794209    3    1   13   11
 -4.108206569185775e-05    3    1   14    1
 0.01438891000598343    3    1   14    6
 -0.02358873784464421    3    1   14    7
 0.01503842452756375    3    1   14    8
 -0.1035463878568976    3    1   14    9
 0.07316717317484281    3    1   14   10
 0.01419309456521399    3    1   14   11
 0.002101715398555035    3    1   15    1
 0.003567895880440116    3    1   15    6
 0.05126234849795903    3    1   15    7
 -0.04475285650459127    3    1   15    8
 -0.02001235608869199    3    1   15    9
 -0.009952084409606035    3    1   15   10
 0.002524477533242243    3    1   15   11
 9.014641242786718e-05    3    1   16    2
 0.001026621540776996    3    1   16    3
 0.0001252471386653095    3    1   16    4
 0.0001186364394141713    3    1   16    5
 -0.1332866640286365    3    1   16   12
 0.03247379223868049    3    1   16   13
 0.004778157601946092    3    1   16   14
 -0.01355380589438635    3    1   16   15
 -7.07867792961725e-05    3    2    1    1
 -0.002644768467393959    3    2    2    2
 0.103082269544467    3    2    3    2
 0.008853763365725404    3    2    3    3
 0.01025293800056172    3    2    4    2
 -0.01930411801051561    3    2    4    3
 0.00217269976682704    3    2    4    4
 -0.007769249684447581    3    2    5    2
 0.0469806676504137    3    2    5    3
 -0.01135619326536897    3    2    5    4
 -0.00816621831780363    3    2    5    5
 0.03505484795174722    3    2    6    1
 -0.05427295427940121    3    2    6    6
 0.07192640309006622    3    2    7    1
 -0.008332456563231902    3    2    7    6
 0.1292094131623211    3    2    7    7
 -0.02054361873397227    3    2    8    1
 0.05061322853207666    3    2    8    6
 -0.01939108210660158    3    2    8    7
 -0.06963592155569696    3    2    8    8
 -0.08018787204709484    3    2    9    1
 0.05266739218513358    3    2    9    6
 0.009237645522122001    3    2    9    7
 0.0434805594268741    3    2    9    8
 -0.07012715240893544    3    2    9    9
 0.01868979759452103    3    2   10    1
 -0.002590002188257914    3    2   10    6
 0.001205633555259316    3    2   10    7
 -0.01937336576599022    3    2   10    8
 -6.133849625435117e-05    3    2   10    9
 0.07614167959283966    3    2   10   10
 -0.02593488647467197    3    2   11    1
 -0.002730878052948999    3    2   11    6
 -0.02082503080772129    3    2   11    7
 0.01306613151522351    3    2   11    8
 0.0009030982208358125    3    2   11    9
 0.02675344794953434    3    2   11   10
 -0.01093011199413891    3    2   11   11
 0.01974204183856428    3    2   12    2
 0.06175713666177278    3    2   12    3
 0.0880671276083347    3    2   12    4
 0.03779374595574158    3    2   12    5
 -0.04402006873762936    3    2   12   12
 0.02794459914198588    3    2   13    2
 -0.0800464538611087    3    2   13    3
 0.0227554078413981    3    2   13    4
 -0.003429969058302323    3    2   13    5
 -0.07150779113312856    3    2   13   12
 0.04411713891363773    3    2   13   13
 -0.007457855392343318    3    2   14    2
 0.05484927154062121    3    2   14    3
 -0.01946248894261709    3    2   14    4
 -0.0227666448477982    3    2   14    5
 -0.07297292787176995    3    2   14   12
 0.01479133677467579    3    2   14   13
 -0.002500192988874443    3    2   14   14
 0.01819150536655678    3    2   15    2
 0.04420187438244724    3    2   15    3
 -0.005708134662257495    3    2   15    4
 -0.01712787881260818    3    2   15    5
 0.03680710787958328    3    2   15   12
 -0.003287624614928149    3    2   15   13
 -0.01713211457363443    3    2   15   14
 0.002187646465510428    3    2   15   15
 9.014641242786978e-05    3    2   16    1
 -0.02729309986127049    3    2   16    6
 -0.0662117496654816    3    2   16    7
 0.06259348496914213    3    2   16    8
 -0.06621351906781153    3    2   16    9
 0.01679151544182393    3    2   16   10
 0.01998943011790962    3    2   16   11
 -0.000314165737692918    3    2   16   16
 0.1385171766217168    3    3    1    1
 0.103082269544467    3    3    2    2
 0.008853763365725386    3    3    3    2
 0.2833391439155445    3    3    3    3
 -0.0193041180105156    3    3    4    2
 0.02101867585168252    3    3    4    3
 0.102023726884912    3    3    4    4
 0.04698066765041369    3    3    5    2
 0.008847013305965065    3    3    5    3
 0.02120829588994661    3    3    5    4
 0.04385885711767906    3    3    5    5
 -0.06063135281982895    3    3    6    1
 0.08031881556866638    3    3    6    6
 0.09428293848699675    3    3    7    1
 0.02529443553545405    3    3    7    6
 0.2646571025424163    3    3    7    7
 -0.04153052710717593    3    3    8    1
 -0.02651491749428686    3    3    8    6
 -0.06084735206110828    3    3    8    7
 0.1235128181494052    3    3    8    8
 0.06663013150688715    3    3    9    1
 -0.04485829722432444    3    3    9    6
 -0.02055129088213003    3    3    9    7
 -0.06627807709428188    3    3    9    8
 0.2117883730923164    3    3    9    9
 0.03656823804328909    3    3   10    1
 -0.01861979403026634    3    3   10    6
 0.001254599218900546    3    3   10    7
 -0.002210562007621632    3    3   10    8
 -0.06618587176314049    3    3   10    9
 0.1002145702594158    3    3   10   10
 -0.00867087125927159    3    3   11    1
 -0.009101470567381788    3    3   11    6
 -0.05399076274530651    3    3   11    7
 0.005341022937019142    3    3   11    8
 0.00298610409809741    3    3   11    9
 0.01672578900186348    3    3   11   10
 0.02097257961047031    3    3   11   11
 0.06175713666177278    3    3   12    2
 -0.0009969587922927208    3    3   12    3
 -0.02880087767879237    3    3   12    4
 0.02517922779772855    3    3   12    5
 0.2621322703308017    3    3   12   12
 -0.08004645386110872    3    3   13    2
 -0.06945853783120966    3    3   13    3
 -0.03343150632526577    3    3   13    4
 -0.05696570764648189    3    3   13    5
 -0.05446381541538362    3    3   13   12
 0.1200048135756339    3    3   13   13
 0.05484927154062122    3    3   14    2
 -0.05798993901227426    3    3   14    3
 -0.09265673413230065    3    3   14    4
 -0.0005032797051882342    3    3   14    5
 0.01168175200155552    3    3   14   12
 0.00932699499414584    3    3   14   13
 0.1225102807024315    3    3   14   14
 0.04420187438244724    3    3   15    2
 0.03657754246910278    3    3   15    3
 0.01763506001820621    3    3   15    4
 0.02638868183802931    3    3   15    5
 0.02629035608620496    3    3   15   12
 -0.05883885915529972    3    3   15   13
 -0.003888610551607506    3    3   15   14
 0.04024863792853026    3    3   15   15
 0.001026621540776996    3    3   16    1
 -0.001344432403217331    3    3   16    6
 -0.1056952282029583    3    3   16    7
 -0.05978959925026681    3    3   16    8
 0.05510619019176169    3    3   16    9
 0.03140480949239922    3    3   16   10
 0.03491778419950334    3    3   16   11
 0.137218564155593    3    3   16   16
 0.0002430899214387744    4    1    2    1
 -0.0001369055654077767    4    1    3    1
 0.1389947119040486    4    1    4    1
 -0.001993525101192269    4    1    5    1
 -0.0391859797155861    4    1    6    2
 0.03633481443232139    4    1    6    3
 -0.004389037659368762    4    1    6    4
 -0.03498594837545358    4    1    6    5
 0.0134846051492232    4    1    7    2
 0.01333352212925128    4    1    7    3
 -0.07304764893737775    4    1    7    4
 0.03749794052521564    4    1    7    5
 0.05542153563976003    4    1    8    2
 -0.04980949850367193    4    1    8    3
 -0.03454349284296454    4    1    8    4
 0.04019108393327581    4    1    8    5
 -0.03344754901568351    4    1    9    2
 0.0660469829688466    4    1    9    3
 -0.03428864161918174    4    1    9    4
 -0.0008708685142943514    4    1    9    5
 -0.07089951837875114    4    1   10    2
 -0.07435837332243418    4    1   10    3
 0.0572789902271936    4    1   10    4
 -0.001632833475025749    4    1   10    5
 -0.06437761478930784    4    1   11    2
 -0.02104591118631555    4    1   11    3
 -0.05016559585624565    4    1   11    4
 0.08517604563067864    4    1   11    5
 0.0003062144234431698    4    1   12    1
 0.04480002105970515    4    1   12    6
 0.01683896686786339    4    1   12    7
 -0.02939538718739558    4    1   12    8
 -0.09626127320204976    4    1   12    9
 0.06155722380582321    4    1   12   10
 -0.0009564613648970188    4    1   12   11
 0.000787783896287822    4    1   13    1
 0.0003976029910957284    4    1   13    6
 0.007369696246997921    4    1   13    7
 -0.0249442623597501    4    1   13    8
 -0.05162760749712467    4    1   13    9
 -0.07587273031101259    4    1   13   10
 0.02389083661676557    4    1   13   11
 -0.002202303309148848    4    1   14    1
 0.07398336613053627    4    1   14    6
 -0.06254160974330476    4    1   14    7
 0.00893935485848508    4    1   14    8
 0.005176765554503477    4    1   14    9
 -0.0734551014991687    4    1   14   10
 -0.04624845814029217    4    1   14   11
 0.0007662527051336392    4    1   15    1
 -0.05429549790115099    4    1   15    6
 0.03680859695285898    4    1   15    7
 0.01353659265816997    4    1   15    8
 -0.02266879030642637    4    1   15    9
 -0.04613149738328019    4    1   15   10
 0.08233391644859099    4    1   15   11
 -0.0002272444500821102    4    1   16    2
 0.0001252471386653038    4    1   16    3
 0.001635312718985687    4    1   16    4
 -0.000293839899822635    4    1   16    5
 0.01321871633968409    4    1   16   12
 0.07294414601584688    4    1   16   13
 -0.1164675321988728    4    1   16   14
 0.01003582850389119    4    1   16   15
 0.0002430899214387779    4    2    1    1
 0.04014843066328237    4    2    2    2
 0.01025293800056172    4    2    3    2
 -0.01930411801051561    4    2    3    3
 0.1081920227283604    4    2    4    2
 0.002172699766827041    4    2    4    3
 -0.01708064704647148    4    2    4    4
 0.03107856141727211    4    2    5    2
 -0.01135619326536897    4    2    5    3
 -0.00883292690843507    4    2    5    4
 -0.003217085983679278    4    2    5    5
 -0.03918597971558609    4    2    6    1
 0.03944931822747713    4    2    6    6
 0.0134846051492232    4    2    7    1
 0.02306161903018502    4    2    7    6
 0.01753723986030535    4    2    7    7
 0.05542153563976003    4    2    8    1
 -0.04303581451092102    4    2    8    6
 -0.0256196211944279    4    2    8    7
 0.0236110810719316    4    2    8    8
 -0.03344754901568352    4    2    9    1
 0.01909715365272485    4    2    9    6
 0.00293258471645303    4    2    9    7
 0.0319838911828464    4    2    9    8
 -0.02139815798098842    4    2    9    9
 -0.07089951837875114    4    2   10    1
 0.04338419557257775    4    2   10    6
 0.00302201656531102    4    2   10    7
 0.01019040496754296    4    2   10    8
 0.1083113310139009    4    2   10    9
 0.01429517433887948    4    2   10   10
 -0.06437761478930783    4    2   11    1
 -0.008495827247447751    4    2   11    6
 0.01704074961812957    4    2   11    7
 0.03196343021191507    4    2   11    8
 0.04636733265624272    4    2   11    9
 0.045541796453607    4    2   11   10
 -0.07350928259376836    4    2   11   11
 -0.01356232930308266    4    2   12    2
 0.08806712760833468    4    2   12    3
 -0.03096398883486848    4    2   12    4
 -0.03080323723861624    4    2   12    5
 -0.01552655621934529    4    2   12   12
 0.07867228632395426    4    2   13    2
 0.0227554078413981    4    2   13    3
 0.02879990902438831    4    2   13    4
 -0.05059665890676669    4    2   13    5
 0.02643013975882641    4    2   13   12
 0.126539198031625    4    2   13   13
 0.0106072382760062    4    2   14    2
 -0.01946248894261709    4    2   14    3
 0.03281967592393057    4    2   14    4
 -0.02161765177184114    4    2   14    5
 -0.004773708480648651    4    2   14   12
 -0.01093492180903557    4    2   14   13
 -0.09750076799386198    4    2   14   14
 0.07831345924881142    4    2   15    2
 -0.005708134662257494    4    2   15    3
 0.01419014503813551    4    2   15    4
 -0.02741602898907523    4    2   15    5
 -0.01622769382539127    4    2   15   12
 0.001715082244873486    4    2   15   13
 -0.03092825135951452    4    2   15   14
 -0.01405845344103407    4    2   15   15
 -0.0002272444500821084    4    2   16    1
 0.04074778001738126    4    2   16    6
 -0.01818731836347091    4    2   16    7
 -0.01915922258649038    4    2   16    8
 -0.06092568624320809    4    2   16    9
 -0.09498331578913358    4    2   16   10
 0.009294454636194207    4    2   16   11
 -0.0002284628452756711    4    2   16   16
 -0.0001369055654077763    4    3    1    1
 0.01025293800056172    4    3    2    2
 -0.01930411801051561    4    3    3    2
 0.02101867585168252    4    3    3    3
 0.00217269976682704    4    3    4    2
 0.102023726884912    4    3    4    3
 -0.03462979136981457    4    3    4    4
 -0.01135619326536897    4    3    5    2
 0.02120829588994661    4    3    5    3
 -0.0324117175472495    4    3    5    4
 0.003562390689119932    4    3    5    5
 0.03633481443232139    4    3    6    1
 -0.03611165208610999    4    3    6    6
 0.01333352212925127    4    3    7    1
 -0.01690722579351501    4    3    7    6
 0.05297284784011518    4    3    7    7
 -0.04980949850367193    4    3    8    1
 0.05313323058365365    4    3    8    6
 0.01141498164450729    4    3    8    7
 -0.01610255861022918    4    3    8    8
 0.0660469829688466    4    3    9    1
 -0.02455721945538549    4    3    9    6
 -0.004314300111608278    4    3    9    7
 -0.07135171904447635    4    3    9    8
 0.07176674931031796    4    3    9    9
 -0.07435837332243418    4    3   10    1
 0.03976268490294963    4    3   10    6
 0.001777569525811181    4    3   10    7
 0.02421760496824707    4    3   10    8
 0.06439760480330517    4    3   10    9
 -0.09862700783108204    4    3   10   10
 -0.02104591118631555    4    3   11    1
 0.0006492650149580785    4    3   11    6
 0.001266162420673119    4    3   11    7
 0.003745111619308458    4    3   11    8
 0.01999242621694723    4    3   11    9
 -0.02475541253920284    4    3   11   10
 0.02674412991735204    4    3   11   11
 0.08806712760833468    4    3   12    2
 -0.02880087767879237    4    3   12    3
 -0.05268272554297547    4    3   12    4
 0.02996538514918407    4    3   12    5
 0.00214580575212963    4    3   12   12
 0.02275540784139811    4    3   13    2
 -0.03343150632526578    4    3   13    3
 0.02233262862416033    4    3   13    4
 0.01517349939344581    4    3   13    5
 -0.04629711544733327    4    3   13   12
 0.01279583007685182    4    3   13   13
 -0.01946248894261709    4    3   14    2
 -0.09265673413230065    4    3   14    3
 0.05811273385566127    4    3   14    4
 0.002617719084134268    4    3   14    5
 0.1014574366849669    4    3   14   12
 -0.0002214938776591148    4    3   14   13
 -0.03084690056542338    4    3   14   14
 -0.005708134662257498    4    3   15    2
 0.0176350600182062    4    3   15    3
 -0.01440286404946758    4    3   15    4
 0.001119844947926273    4    3   15    5
 0.02536387376150855    4    3   15   12
 0.01690368912298944    4    3   15   13
 -0.009072439101815866    4    3   15   14
 0.01570105156489181    4    3   15   15
 0.0001252471386653069    4    3   16    1
 -0.03522198657928841    4    3   16    6
 -0.02026315197637498    4    3   16    7
 0.02234451062967794    4    3   16    8
 0.08207348458837724    4    3   16    9
 -0.0738995474658683    4    3   16   10
 -0.003042164560410125    4    3   16   11
 -0.0005056029749564185    4    3   16   16
 0.1389947119040486    4    4    1    1
 0.1081920227283604    4    4    2    2
 0.002172699766827043    4    4    3    2
 0.102023726884912    4    4    3    3
 -0.01708064704647148    4    4    4    2
 -0.03462979136981459    4    4    4    3
 0.2359994146486168    4    4    4    4
 -0.008832926908435072    4    4    5    2
 -0.0324117175472495    4    4    5    3
 -0.0620108239491198    4    4    5    4
 0.0844128297900619    4    4    5    5
 -0.004389037659368763    4    4    6    1
 0.105973351244525    4    4    6    6
 -0.07304764893737775    4    4    7    1
 -0.05018166107931295    4    4    7    6
 0.09250746927635362    4    4    7    7
 -0.03454349284296454    4    4    8    1
 -0.04890713517957515    4    4    8    6
 0.02449187974939374    4    4    8    7
 0.07380329472312391    4    4    8    8
 -0.03428864161918176    4    4    9    1
 0.007871192101934391    4    4    9    6
 -0.00186500971599364    4    4    9    7
 -0.000443877546751301    4    4    9    8
 0.1353282938232808    4    4    9    9
 0.05727899022719361    4    4   10    1
 -0.002017688402745155    4    4   10    6
 -0.02055336860408898    4    4   10    7
 -0.02451369646468023    4    4   10    8
 -0.04128901394579843    4    4   10    9
 0.2187170391939876    4    4   10   10
 -0.05016559585624566    4    4   11    1
 -0.06450363228883656    4    4   11    6
 0.08534557203982192    4    4   11    7
 0.01998094022934635    4    4   11    8
 -0.006464672713016394    4    4   11    9
 0.00432813457737936    4    4   11   10
 0.1741044984784215    4    4   11   11
 -0.03096398883486848    4    4   12    2
 -0.05268272554297547    4    4   12    3
 0.04599474664820643    4    4   12    4
 -0.01653692139274622    4    4   12    5
 0.1171421421055073    4    4   12   12
 0.0287999090243883    4    4   13    2
 0.02233262862416033    4    4   13    3
 -0.02456354183812296    4    4   13    4
 0.0109493190825085    4    4   13    5
 0.01567933533081098    4    4   13   12
 0.107309311003561    4    4   13   13
 0.03281967592393058    4    4   14    2
 0.05811273385566127    4    4   14    3
 0.01308632648581987    4    4   14    4
 -0.06015610801448057    4    4   14    5
 -0.03149302045109367    4    4   14   12
 -0.03583566033728177    4    4   14   13
 0.219637721470757    4    4   14   14
 0.01419014503813551    4    4   15    2
 -0.01440286404946758    4    4   15    3
 -0.06385970270904548    4    4   15    4
 0.079681719072675    4    4   15    5
 -0.02055569286567557    4    4   15   12
 0.05222706751464499    4    4   15   13
 -0.05704746117282485    4    4   15   14
 0.1024828313682235    4    4   15   15
 0.001635312718985694    4    4   16    1
 -0.06071325565212761    4    4   16    6
 0.06061452082159095    4    4   16    7
 -0.0223699723797814    4    4   16    8
 -0.04166851910626033    4    4   16    9
 0.02432316122030151    4    4   16   10
 0.05643544127425729    4    4   16   11
 0.1377713413562588    4    4   16   16
 -0.001761611207511156    5    1    2    1
 -0.002697753629023683    5    1    3    1
 -0.001993525101192265    5    1    4    1
 0.1216211810831428    5    1    5    1
 -0.02405053774486175    5    1    6    2
 0.05026092616297612    5    1    6    3
 -0.03498594837545358    5    1    6    4
 0.1172219711126209    5    1    6    5
 0.03114825613476541    5    1    7    2
 0.05365368447478762    5    1    7    3
 0.03749794052521564    5    1    7    4
 -0.009592644814892066    5    1    7    5
 0.05305826006051373    5    1    8    2
 -0.01244223427881451    5    1    8    3
 0.04019108393327581    5    1    8    4
 0.10603754244266    5    1    8    5
 0.0426129595563025    5    1    9    2
 -0.01060879757499441    5    1    9    3
 -0.0008708685142943514    5    1    9    4
 0.02465480337361284    5    1    9    5
 0.03165941564761433    5    1   10    2
 -0.007329754636877666    5    1   10    3