 &FCI NORB=  16,NELEC=10,MS2=2,
  ORBSYM=1,1,1,1,1,1,1,1,1,1,1,1,1,1,1,1
  ISYM=1,
 &END
 0.2550729664572884    1    1    1    1
 0.2648359340234939    1    1    2    2
 0.000261542556754495    1    1    3    2
 0.2637151396155791    1    1    3    3
 0.0007182974505189135    1    1    4    2
 -0.0004672689407142772    1    1    4    3
 0.2635416579524069    1    1    4    4
 -0.001057724800359209    1    1    5    2
 0.0005659750275204267    1    1    5    3
 0.00375220695287578    1    1    5    4
 0.1968981539875028    1    1    5    5
 -0.02773237339343693    1    1    6    1
 0.189637042282163    1    1    6    6
 0.008970055741388037    1    1    7    1
 0.02196196392368136    1    1    7    6
 0.2484859554860189    1    1    7    7
 -0.004093480745875306    1    1    8    1
 -0.008908688193331868    1    1    8    6
 0.002258322658913707    1    1    8    7
 0.2622158468501972    1    1    8    8
 -0.001159789235948522    1    1    9    1
 -0.00238975741110147    1    1    9    6
 0.0005619181919619375    1    1    9    7
 -0.003014613545994995    1    1    9    8
 0.2734536756630569    1    1    9    9
 -0.001112075680175708    1    1   10    1
 -0.0005669717176725181    1    1   10    6
 -0.0005127648727562052    1    1   10    7
 -0.01039170466017823    1    1   10    8
 -0.002820841747708643    1    1   10    9
 0.264349935249285    1    1   10   10
 0.004298732780278782    1    1   11    1
 0.0131526283896694    1    1   11    6
 -0.003309114766085462    1    1   11    7
 0.002706151686094638    1    1   11    8
 0.0003194234497306358    1    1   11    9
 -0.0006940454373423374    1    1   11   10
 0.252678153028711    1    1   11   11
 -0.008867698025259201    1    1   12    2
 0.0005288876131613364    1    1   12    3
 -0.0007468262642807318    1    1   12    4
 -0.001898013985039573    1    1   12    5
 0.2655513118520045    1    1   12   12
 0.0006811450582343923    1    1   13    2
 0.00847886678213906    1    1   13    3
 -0.001040112331105418    1    1   13    4
 -0.01770783604257183    1    1   13    5
 -0.0005266878724242054    1    1   13   12
 0.2591338004207429    1    1   13   13
 0.001566616116242186    1    1   14    2
 -0.004151593307822186    1    1   14    3
 -0.009214175242548098    1    1   14    4
 -0.008091509311273601    1    1   14    5
 0.0003563131661620395    1    1   14   12
 -0.002437554661241695    1    1   14   13
 0.2626361410133858    1    1   14   14
 0.0004172133230433829    1    1   15    2
 0.003946137757684624    1    1   15    3
 -0.005370196453282319    1    1   15    4
 0.04230323417917082    1    1   15    5
 0.001256242884543235    1    1   15   12
 0.01501050335120501    1    1   15   13
 0.007401491841857467    1    1   15   14
 0.2236878611348855    1    1   15   15
 2.963671734030476e-05    1    1   16    1
 -0.02906660977056371    1    1   16    6
 0.00961899545406094    1    1   16    7
 -0.00309119574820184    1    1   16    8
 -0.0008550146865881382    1    1   16    9
 0.0002538995563362359    1    1   16   10
 0.006861982276130191    1    1   16   11
 0.254106424983282    1    1   16   16
 0.2648359340234939    2    1    2    1
 0.0002615425567544932    2    1    3    1
 0.0007182974505189066    2    1    4    1
 -0.00105772480035921    2    1    5    1
 -0.09690491346484957    2    1    6    2
 0.06111107869813223    2    1    6    3
 -0.02643988593095057    2    1    6    4
 0.05777113590284803    2    1    6    5
 0.05366473081513223    2    1    7    2
 0.1160879655231236    2    1    7    3
 -0.04509495130526837    2    1    7    4
 0.1401709403964414    2    1    7    5
 0.09808409833056614    2    1    8    2
 -0.1257834976580025    2    1    8    3
 -0.1215367605372133    2    1    8    4
 -0.003490634558824601    2    1    8    5
 -0.1065237274164064    2    1    9    2
 -0.06146202346568778    2    1    9    3
 -0.04662116315736802    2    1    9    4
 0.001507262098008245    2    1    9    5
 -0.176629974061137    2    1   10    2
 -0.0228004993876232    2    1   10    3
 0.1161091786560108    2    1   10    4
 0.01820966008486823    2    1   10    5
 -0.09731796334029377    2    1   11    2
 0.02529166972772197    2    1   11    3
 -0.1325281526481509    2    1   11    4
 0.03407714897099301    2    1   11    5
 -0.008867698025259205    2    1   12    1
 0.06968636228410524    2    1   12    6
 -0.02491825062030638    2    1   12    7
 -0.157241260495587    2    1   12    8
 0.08868554943301474    2    1   12    9
 0.07085395441777931    2    1   12   10
 -0.171510131478581    2    1   12   11
 0.0006811450582343732    2    1   13    1
 -0.08640032558088866    2    1   13    6
 -0.1731649446216061    2    1   13    7
 0.07807419919228109    2    1   13    8
 -0.01814571271768678    2    1   13    9
 0.06663479939062829    2    1   13   10
 -0.06056693447839571    2    1   13   11
 0.001566616116242182    2    1   14    1
 -0.04082683054442584    2    1   14    6
 -0.01479139858252496    2    1   14    7
 0.1104267981145577    2    1   14    8
 0.03338325370099141    2    1   14    9
 -0.1973211409893641    2    1   14   10
 -0.07054838648580115    2    1   14   11
 0.0004172133230433777    2    1   15    1
 0.03266486057808422    2    1   15    6
 0.1250522110483758    2    1   15    7
 0.04927753130443282    2    1   15    8
 0.005705494780967196    2    1   15    9
 0.005708080616953208    2    1   15   10
 0.0137863856343615    2    1   15   11
 0.003900469505655252    2    1   16    2
 0.0002035290282565629    2    1   16    3
 -0.0009715841059450281    2    1   16    4
 0.0002029544188751175    2    1   16    5
 -0.2605174599126642    2    1   16   12
 0.02361009820358275    2    1   16   13
 0.03043428190745117    2    1   16   14
 0.002509663344275205    2    1   16   15
 0.2648359340234939    2    2    1    1
 0.5393467770289653    2    2    2    2
 -0.01250552909865091    2    2    3    2
 0.146857827558248    2    2    3    3
 -0.04827295107244514    2    2    4    2
 0.01740260897893354    2    2    4    3
 0.1895628623163568    2    2    4    4
 -0.01997363543543194    2    2    5    2
 0.07986677859822296    2    2    5    3
 -0.03908818484557681    2    2    5    4
 0.0956497730896699    2    2    5    5
 -0.09690491346484957    2    2    6    1
 0.1215803222635817    2    2    6    6
 0.05366473081513223    2    2    7    1
 0.1148006325783058    2    2    7    6
 0.329267437460383    2    2    7    7
 0.09808409833056614    2    2    8    1
 -0.1288799474032778    2    2    8    6
 -0.03906343190482295    2    2    8    7
 0.317263004633876    2    2    8    8
 -0.1065237274164064    2    2    9    1
 0.05234005275867303    2    2    9    6
 -0.03525436359469238    2    2    9    7
 -0.02963770492865008    2    2    9    8
 0.09744192051034711    2    2    9    9
 -0.176629974061137    2    2   10    1
 0.07570393978333292    2    2   10    6
 -0.09315351013992816    2    2   10    7
 -0.1999079816655021    2    2   10    8
 0.05004364636450832    2    2   10    9
 0.3474357810006777    2    2   10   10
 -0.09731796334029377    2    2   11    1
 0.05216957488247068    2    2   11    6
 0.1003059940284866    2    2   11    7
 0.0687051186536745    2    2   11    8
 -0.004122320946462639    2    2   11    9
 0.001789358102675384    2    2   11   10
 0.2607689164690057    2    2   11   11
 -0.1036437676932855    2    2   12    2
 0.03598827094855203    2    2   12    3
 0.1703086754761005    2    2   12    4
 -0.01353581548900515    2    2   12    5
 0.5260204207720427    2    2   12   12
 0.009725939868584445    2    2   13    2
 -0.1453803294996049    2    2   13    3
 0.06650963603599028    2    2   13    4
 -0.1184481140576636    2    2   13    5
 -0.02428373027417902    2    2   13   12
 0.2046006410825941    2    2   13   13
 0.1945589335271286    2    2   14    2
 -0.06343079885943495    2    2   14    3
 -0.0942357984541998    2    2   14    4
 -0.04127986367731387    2    2   14    5
 -0.09474599062599885    2    2   14   12
 0.02322801953599266    2    2   14   13
 0.2221960783049236    2    2   14   14
 0.02009811524974372    2    2   15    2
 0.03992374337764531    2    2   15    3
 -0.05282433460145607    2    2   15    4
 0.0776244069030816    2    2   15    5
 -0.03981637074771994    2    2   15   12
 -0.08227213630116591    2    2   15   13
 -0.0001701135683974272    2    2   15   14
 0.0757656198472003    2    2   15   15
 0.003900469505655242    2    2   16    1
 -0.07863410615044714    2    2   16    6
 0.007573948034596786    2    2   16    7
 0.1728710218936229    2    2   16    8
 -0.08269663173352164    2    2   16    9
 -0.08363841497691922    2    2   16   10
 0.156916877321049    2    2   16   11
 0.2614066836386365    2    2   16   16
 0.0002615425567544932    3    1    2    1
 0.2637151396155791    3    1    3    1
 -0.000467268940714291    3    1    4    1
 0.0005659750275204267    3    1    5    1
 0.06111107869813225    3    1    6    2
 -0.05410337837805131    3    1    6    3
 0.01463552047534481    3    1    6    4
 0.008030844458509137    3    1    6    5
 0.1160879655231237    3    1    7    2
 0.1252736771855312    3    1    7    3
 0.05921662222313284    3    1    7    4
 0.03213259903238588    3    1    7    5
 -0.1257834976580025    3    1    8    2
 -0.03227788896611675    3    1    8    3
 0.09425531357391513    3    1    8    4
 -0.08201846835550024    3    1    8    5
 -0.06146202346568779    3    1    9    2
 0.2041602869416672    3    1    9    3
 -0.1566099728715511    3    1    9    4
 -0.03474748515840972    3    1    9    5
 -0.02280049938762321    3    1   10    2
 0.1090094959019951    3    1   10    3
 0.1145937458109661    3    1   10    4
 -0.08699164265095996    3    1   10    5
 0.02529166972772197    3    1   11    2
 -0.003196293071236274    3    1   11    3
 0.02077355232512614    3    1   11    4
 -0.08714072117195357    3    1   11    5
 0.0005288876131613399    3    1   12    1
 0.04664712277751139    3    1   12    6
 0.1172208640155796    3    1   12    7
 -0.03370714025836312    3    1   12    8
 0.05882640818238939    3    1   12    9
 -0.1208389613799943    3    1   12   10
 0.04155789179402287    3    1   12   11
 0.008478866782139072    3    1   13    1
 -0.09617395336685768    3    1   13    6
 -0.07404793904346232    3    1   13    7
 -0.09481677814942363    3    1   13    8
 0.2170515006628032    3    1   13    9
 0.0448990648826926    3    1   13   10
 0.05438497128455749    3    1   13   11
 -0.004151593307822186    3    1   14    1
 0.03465150091627702    3    1   14    6
 0.06042266348275466    3    1   14    7
 0.1354145972004246    3    1   14    8
 0.1308464408535802    3    1   14    9
 0.07424346565515237    3    1   14   10
 0.02160191483867828    3    1   14   11
 0.003946137757684624    3    1   15    1
 -0.02181810216905821    3    1   15    6
 0.02812627460150885    3    1   15    7
 -0.1347172499648562    3    1   15    8
 0.07622448219325319    3    1   15    9
 -0.09994804703884512    3    1   15   10
 -0.09147230709399866    3    1   15   11
 0.0002035290282565629    3    1   16    2
 0.005110374753524381    3    1   16    3
 0.0004223493919090805    3    1   16    4
 -0.0007637122459676253    3    1   16    5
 0.01219525102312192    3    1   16   12
 0.2356421216633402    3    1   16   13
 -0.08857258537469528    3    1   16   14
 0.0749373117888695    3    1   16   15
 0.0002615425567544898    3    2    1    1
 -0.01250552909865091    3    2    2    2
 0.146857827558248    3    2    3    2
 0.0005457292058617938    3    2    3    3
 0.01740260897893353    3    2    4    2
 0.01063052476270339    3    2    4    3
 0.01014706922750807    3    2    4    4
 0.07986677859822294    3    2    5    2
 0.06469433055562594    3    2    5    3
 0.0445981180599793    3    2    5    4
 0.00238033100013555    3    2    5    5
 0.06111107869813225    3    2    6    1
 0.001511677694557391    3    2    6    6
 0.1160879655231236    3    2    7    1
 0.03793004955149558    3    2    7    6
 0.1374258864331729    3    2    7    7
 -0.1257834976580025    3    2    8    1
 -0.00610422501678178    3    2    8    6
 -0.1084200207055997    3    2    8    7
 -0.051178588412986    3    2    8    8
 -0.06146202346568779    3    2    9    1
 0.01052517521438549    3    2    9    6
 -0.03425474126007438    3    2    9    7
 0.04785947505964258    3    2    9    8
 0.02643527506980133    3    2    9    9
 -0.0228004993876232    3    2   10    1
 -0.06714732243452151    3    2   10    6
 -0.09592078806104949    3    2   10    7
 -0.016676530990259    3    2   10    8
 -0.07139303099598607    3    2   10    9
 -0.03046447286569879    3    2   10   10
 0.02529166972772197    3    2   11    1
 -0.05436874933203759    3    2   11    6
 -0.134095005437223    3    2   11    7
 -0.01448567365146152    3    2   11    8
 -0.002902111620707375    3    2   11    9
 -0.007809759334157414    3    2   11   10
 -0.08325148745843623    3    2   11   11
 0.03598827094855202    3    2   12    2
 0.08377000025716037    3    2   12    3
 -0.09225789389699227    3    2   12    4
 0.07240331361408277    3    2   12    5
 -0.02956626670626622    3    2   12   12
 -0.145380329499605    3    2   13    2
 -0.05943879066723245    3    2   13    3
 0.0184724060247299    3    2   13    4
 -0.04948716526812089    3    2   13    5
 -0.1489020753539509    3    2   13   12
 0.05990694095884109    3    2   13   13
 -0.06343079885943495    3    2   14    2
 -0.06590921385802471    3    2   14    3
 -0.07682356818703605    3    2   14    4
 0.04853783508497236    3    2   14    5
 0.05765260546159259    3    2   14   12
 -0.01277485940125075    3    2   14   13
 -0.01099590006082324    3    2   14   14
 0.03992374337764531    3    2   15    2
 0.05679983435808175    3    2   15    3
 0.0496298738749737    3    2   15    4
 -0.006777847622209068    3    2   15    5
 0.05683224106670599    3    2   15   12
 -0.0552738333497974    3    2   15   13
 0.06538709223676815    3    2   15   14
 -0.01991237452660638    3    2   15   15
 0.0002035290282565803    3    2   16    1
 -0.05175364332118651    3    2   16    6
 -0.1164564673674628    3    2   16    7
 0.04162016575891404    3    2   16    8
 -0.02059931852062877    3    2   16    9
 0.1309452428855312    3    2   16   10
 -0.03470880217596715    3    2   16   11
 -0.0007398330171654414    3    2   16   16
 0.2637151396155791    3    3    1    1
 0.146857827558248    3    3    2    2
 0.0005457292058618068    3    3    3    2
 0.5371728209984826    3    3    3    3
 0.01063052476270339    3    3    4    2
 -0.05290767492447902    3    3    4    3
 0.1902305792524267    3    3    4    4
 0.06469433055562593    3    3    5    2
 -0.03949139336197716    3    3    5    3
 -0.04828205898499716    3    3    5    4
 0.09525521794270529    3    3    5    5
 -0.05410337837805133    3    3    6    1
 0.07506049146230334    3    3    6    6
 0.1252736771855312    3    3    7    1
 0.06152883248323807    3    3    7    6
 0.2240589845649058    3    3    7    7
 -0.03227788896611671    3    3    8    1
 0.03484935355000439    3    3    8    6
 -0.02993359548778672    3    3    8    7
 0.3054397784191744    3    3    8    8
 0.2041602869416672    3    3    9    1
 -0.1194146145929995    3    3    9    6
 0.03264774890300381    3    3    9    7
 -0.08995680583444457    3    3    9    8
 0.5289557439344783    3    3    9    9
 0.1090094959019951    3    3   10    1
 -0.04330339710943639    3    3   10    6
 -0.002740251385762747    3    3   10    7
 0.1649034700141203    3    3   10    8
 0.0536278688377242    3    3   10    9
 0.2543397071727804    3    3   10   10
 -0.003196293071236268    3    3   11    1
 0.003268462191128146    3    3   11    6
 0.00205499093914017    3    3   11    7
 0.05850314010544094    3    3   11    8
 0.02935861119421795    3    3   11    9
 0.06789609363931702    3    3   11   10
 0.08680908468703818    3    3   11   11
 0.08377000025716039    3    3   12    2
 0.04422541162581604    3    3   12    3
 -0.0658603440293058    3    3   12    4
 0.0465507663133782    3    3   12    5
 0.1417884742358761    3    3   12   12
 -0.05943879066723245    3    3   13    2
 0.1766377855024588    3    3   13    3
 -0.1560890229344564    3    3   13    4
 -0.04447884082100385    3    3   13    5
 0.006728765410988958    3    3   13   12
 0.4894990217598271    3    3   13   13
 -0.06590921385802471    3    3   14    2
 0.1370252422401849    3    3   14    3
 0.02694396032931192    3    3   14    4
 -0.08577865803826278    3    3   14    5
 0.007160097045716522    3    3   14   12
 -0.03596518884377149    3    3   14   13
 0.2093619023931074    3    3   14   14
 0.05679983435808175    3    3   15    2
 0.04908781275031723    3    3   15    3
 -0.1391145340309359    3    3   15    4
 0.1020344880631848    3    3   15    5
 0.07882345390395371    3    3   15   12
 0.1378909680013377    3    3   15   13
 -0.09448134061373982    3    3   15   14
 0.1898341558593281    3    3   15   15
 0.005110374753524381    3    3   16    1
 -0.1002580835989911    3    3   16    6
 -0.07495910152707685    3    3   16    7
 -0.170029487646646    3    3   16    8
 0.1697942021006103    3    3   16    9
 -0.02165424349557582    3    3   16   10
 0.01686957176965893    3    3   16   11
 0.2616210701437433    3    3   16   16
 0.0007182974505189135    4    1    2    1
 -0.0004672689407142876    4    1    3    1
 0.2635416579524069    4    1    4    1
 0.003752206952875787    4    1    5    1
 -0.02643988593095058    4    1    6    2
 0.01463552047534481    4    1    6    3
 -0.08112917105421392    4    1    6    4
 0.0004840191951894994    4    1    6    5
 -0.04509495130526837    4    1    7    2
 0.05921662222313283    4    1    7    3
 -0.09422999541673222    4    1    7    4
 -0.03770340119716229    4    1    7    5
 -0.1215367605372133    4    1    8    2
 0.0942553135739151    4    1    8    3
 -0.08812688394711962    4    1    8    4
 -0.07720803413457089    4    1    8    5
 -0.04662116315736803    4    1    9    2
 -0.1566099728715511    4    1    9    3
 -0.1036063716267755    4    1    9    4
 -0.02115922050291041    4    1    9    5
 0.1161091786560108    4    1   10    2
 0.1145937458109661    4    1   10    3
 0.06694223666658301    4    1   10    4
 -0.05530128068453547    4    1   10    5
 -0.1325281526481509    4    1   11    2
 0.02077355232512615    4    1   11    3
 0.1281194141404727    4    1   11    4
 0.1363851048316581    4    1   11    5
 -0.0007468262642807352    4    1   12    1
 -0.03657136852029375    4    1   12    6
 -0.05449976347337744    4    1   12    7
 0.1179132950172034    4    1   12    8
 0.04427924902307972    4    1   12    9
 -0.1655025162094923    4    1   12   10
 -0.09354475338182142    4    1   12   11
 -0.001040112331105418    4    1   13    1
 -0.0004424417680451258    4    1   13    6
 -0.06665441785574006    4    1   13    7
 -0.02835545646258597    4    1   13    8
 -0.1556160002962405    4    1   13    9
 -0.02419758713691113    4    1   13   10
 -0.03297301387615724    4    1   13   11
 -0.009214175242548091    4    1   14    1
 0.06356611929064578    4    1   14    6
 -0.09647431359633984    4    1   14    7
 0.05562979765635369    4    1   14    8
 0.156923627442248    4    1   14    9
 -0.04997930892031396    4    1   14   10
 0.09928214688422304    4    1   14   11
 -0.005370196453282312    4    1   15    1
 0.05462920348912506    4    1   15    6
 -0.1015197640588886    4    1   15    7
 -0.09035015263522153    4    1   15    8
 -0.05173703352015409    4    1   15    9
 -0.1013630614710558    4    1   15   10
 0.1652828784459607    4    1   15   11
 -0.0009715841059450281    4    1   16    2
 0.0004223493919090875    4    1   16    3
 0.005947410275633377    4    1   16    4
 0.0007645161163350282    4    1   16    5
 -0.03736581743877547    4    1   16   12
 -0.07107675516922671    4    1   16   13
 -0.2433640902172386    4    1   16   14
 -0.05854407692594977    4    1   16   15
 0.0007182974505189205    4    2    1    1
 -0.04827295107244514    4    2    2    2
 0.01740260897893353    4    2    3    2
 0.01063052476270339    4    2    3    3
 0.1895628623163568    4    2    4    2
 0.01014706922750807    4    2    4    3
 0.04391638557901145    4    2    4    4
 -0.03908818484557681    4    2    5    2
 0.0445981180599793    4    2    5    3
 -0.0488377107347044    4    2    5    4
 -0.006093085597523257    4    2    5    5
 -0.02643988593095057    4    2    6    1
 0.009473398673386004    4    2    6    6
 -0.04509495130526837    4    2    7    1
 0.04215928993620797    4    2    7    6
 0.01917204682031267    4    2    7    7
 -0.1215367605372133    4    2    8    1
 0.07629313967948988    4    2    8    6
 -0.04780317258786763    4    2    8    7
 -0.1204904572309639    4    2    8    8
 -0.04662116315736802    4    2    9    1
 0.01796028082037703    4    2    9    6
 -0.007289245502705873    4    2    9    7
 0.08442577165685919    4    2    9    8
 0.1129613069283062    4    2    9    9
 0.1161091786560108    4    2   10    1
 -0.07207552090191029    4    2   10    6
 0.01776348202736543    4    2   10    7
 0.005862467499031878    4    2   10    8
 -0.1434890839820461    4    2   10    9
 -0.07816276003494842    4    2   10   10
 -0.1325281526481509    4    2   11    1
 0.0626933614250345    4    2   11    6
 0.1404028819968209    4    2   11    7
 7.406927219833035e-06    4    2   11    8
 0.01374464465080005    4    2   11    9
 0.04854456164530373    4    2   11   10
 0.05512681883216675    4    2   11   11
 0.1703086754761005    4    2   12    2
 -0.09225789389699227    4    2   12    3
 -0.06772267805958371    4    2   12    4
 -0.06289146024387007    4    2   12    5
 -0.001416064556486778    4    2   12   12
 0.06650963603599026    4    2   13    2
 0.01847240602472991    4    2   13    3
 0.05787922093706913    4    2   13    4
 -0.04350449521741815    4    2   13    5
 0.05790017275114854    4    2   13   12
 0.04116953906455206    4    2   13   13
 -0.0942357984541998    4    2   14    2
 -0.07682356818703605    4    2   14    3
 -0.1131856634688071    4    2   14    4
 -0.02857038488603185    4    2   14    5
 0.2033596236440489    4    2   14   12
 -0.006936860694514269    4    2   14   13
 0.01632612496331393    4    2   14   14
 -0.05282433460145607    4    2   15    2
 0.0496298738749737    4    2   15    3
 -0.06642078487231227    4    2   15    4
 -0.02806164372064435    4    2   15    5
 -0.01814089249260154    4    2   15   12
 -0.04468373778589609    4    2   15   13
 -0.02329759718715015    4    2   15   14
 -0.05626047314312609    4    2   15   15
 -0.0009715841059450246    4    2   16    1
 0.0443806274127896    4    2   16    6
 0.03649640689361468    4    2   16    7
 -0.109904213401635    4    2   16    8
 -0.03851828794201431    4    2   16    9
 0.1514417722494286    4    2   16   10
 0.1043471624530947    4    2   16   11
 0.0012013485612218    4    2   16   16
 -0.0004672689407142876    4    3    1    1
 0.01740260897893353    4    3    2    2
 0.01063052476270339    4    3    3    2
 -0.052907674924479    4    3    3    3
 0.01014706922750808    4    3    4    2
 0.1902305792524267    4    3    4    3
 0.03928105753834833    4    3    4    4
 0.0445981180599793    4    3    5    2
 -0.04828205898499716    4    3    5    3
 -0.03889519281820365    4    3    5    4
 -0.004473084591479582    4    3    5    5
 0.01463552047534481    4    3    6    1
 -0.01638168828355341    4    3    6    6
 0.05921662222313284    4    3    7    1
 -0.01906253761476371    4    3    7    6
 -0.05754032154393488    4    3    7    7
 0.09425531357391513    4    3    8    1
 -0.008105898401731598    4    3    8    6
 0.02644275391002437    4    3    8    7
 0.1122649256669711    4    3    8    8
 -0.1566099728715511    4    3    9    1
 0.1004457499210362    4    3    9    6
 -0.02542113308161902    4    3    9    7
 0.1638565497863419    4    3    9    8
 -0.09709746165084943    4    3    9    9
 0.1145937458109661    4    3   10    1
 -0.01249949270277496    4    3   10    6
 0.0256855441511513    4    3   10    7
 0.0344276191141983    4    3   10    8
 -0.07643440954499062    4    3   10    9
 0.1814664034293855    4    3   10   10
 0.02077355232512615    4    3   11    1
 -0.02961890855481429    4    3   11    6
 0.005855430464576383    4    3   11    7
 0.05642983574174563    4    3   11    8
 0.002755079544033041    4    3   11    9
 0.03518786330152888    4    3   11   10
 -0.1225491081336031    4    3   11   11
 -0.09225789389699227    4    3   12    2
 -0.0658603440293058    4    3   12    3
 -0.0769351435072175    4    3   12    4
 0.03670306499995749    4    3   12    5
 0.02010216282953517    4    3   12   12
 0.0184724060247299    4    3   13    2
 -0.1560890229344564    4    3   13    3
 0.04842908920082122    4    3   13    4
 0.04122405784280043    4    3   13    5
 -0.0564816333799848    4    3   13   12
 -0.1675437461813072    4    3   13   13
 -0.07682356818703605    4    3   14    2
 0.02694396032931192    4    3   14    3
 -0.1008789283192654    4    3   14    4
 -0.06599422647652774    4    3   14    5
 0.02000063836765237    4    3   14   12
 -0.09326149807463735    4    3   14   13
 0.1662082016438186    4    3   14   14
 0.0496298738749737    4    3   15    2
 -0.1391145340309359    4    3   15    3
 -0.05638243227216003    4    3   15    4
 0.003652879857524793    4    3   15    5
 0.03602214797726288    4    3   15   12
 -0.03309121843803902    4    3   15   13
 -0.08794632592700803    4    3   15   14
 -0.01806952529336967    4    3   15   15
 0.0004223493919090909    4    3   16    1
 -0.008177342701733922    4    3   16    6
 -0.05958323708288639    4    3   16    7
 -0.06636797300956461    4    3   16    8
 -0.2012955698014254    4    3   16    9
 -0.04356396869558638    4    3   16   10
 -0.02045752439534201    4    3   16   11
 0.0003045194562984153    4    3   16   16
 0.2635416579524069    4    4    1    1
 0.1895628623163568    4    4    2    2
 0.01014706922750807    4    4    3    2
 0.1902305792524267    4    4    3    3
 0.04391638557901147    4    4    4    2
 0.03928105753834833    4    4    4    3
 0.4718447435725844    4    4    4    4
 -0.04883771073470441    4    4    5    2
 -0.03889519281820365    4    4    5    3
 0.1067599116704173    4    4    5    4
 0.1171927473406698    4    4    5    5
 -0.08112917105421392    4    4    6    1
 0.06010790151975953    4    4    6    6
 -0.09422999541673224    4    4    7    1
 0.0004683580252229946    4    4    7    6
 0.168376285727306    4    4    7    7
 -0.08812688394711962    4    4    8    1
 0.02159817343811542    4    4    8    6
 0.08574553836235864    4    4    8    7
 0.239554564050018    4    4    8    8
 -0.1036063716267755    4    4    9    1
 0.04710462169241544    4    4    9    6
 0.00704650516689685    4    4    9    7
 0.09204284480491037    4    4    9    8
 0.333490923962891    4    4    9    9
 0.06694223666658301    4    4   10    1
 -0.03461527599078359    4    4   10    6
 0.09021807251326255    4    4   10    7
 -0.05575276087699416    4    4   10    8
 -0.1265904935614544    4    4   10    9
 0.2799107207876341    4    4   10   10
 0.1281194141404727    4    4   11    1
 0.04810525190592152    4    4   11    6
 -0.115696203092711    4    4   11    7
 -0.09234934569961768    4    4   11    8
 -0.02039538278358629    4    4   11    9
 -0.06814841094268966    4    4   11   10
 0.3934200749895163    4    4   11   11
 -0.06772267805958371    4    4   12    2
 -0.0769351435072175    4    4   12    3
 -0.1112670480381755    4    4   12    4
 -0.04502265237180733    4    4   12    5
 0.2146038991995729    4    4   12   12
 0.05787922093706913    4    4   13    2
 0.04842908920082122    4    4   13    3
 0.07099835415286304    4    4   13    4
 0.01953059160700987    4    4   13    5
 0.01402797472083983    4    4   13   12
 0.1353132059466411    4    4   13   13
 -0.1131856634688071    4    4   14    2
 -0.1008789283192654    4    4   14    3
 -0.02719821459797435    4    4   14    4
 0.04905134641995238    4    4   14    5
 0.08779909660887954    4    4   14   12
 -0.01382650574262791    4    4   14   13
 0.4247137429649782    4    4   14   14
 -0.06642078487231227    4    4   15    2
 -0.05638243227216003    4    4   15    3
 0.1260837808131792    4    4   15    4
 0.1573494861906544    4    4   15    5
 -0.02411595227320616    4    4   15   12
 0.07116426866984668    4    4   15   13
 0.1389093703558331    4    4   15   14
 0.2565382194067715    4    4   15   15
 0.005947410275633398    4    4   16    1
 -0.06371136148093733    4    4   16    6
 0.1381870699472122    4    4   16    7
 -0.03853475391440113    4    4   16    8
 -0.0958713453499858    4    4   16    9
 0.09654571443789875    4    4   16   10
 -0.1081168050201878    4    4   16   11
 0.2615978710104703    4    4   16   16
 -0.001057724800359207    5    1    2    1
 0.0005659750275204256    5    1    3    1
 0.003752206952875787    5    1    4    1
 0.1968981539875028    5    1    5    1
 0.05777113590284804    5    1    6    2
 0.008030844458509137    5    1    6    3
 0.0004840191951895013    5    1    6    4
 0.2899479571287091    5    1    6    5
 0.1401709403964414    5    1    7    2
 0.03213259903238586    5    1    7    3
 -0.03770340119716229    5    1    7    4
 -0.1027956137048508    5    1    7    5
 -0.003490634558824596    5    1    8    2
 -0.08201846835550022    5    1    8    3
 -0.07720803413457089    5    1    8    4
 0.02922242670241957    5    1    8    5
 0.001507262098008246    5    1    9    2
 -0.03474748515840972    5    1    9    3
 -0.02115922050291041    5    1    9    4
 0.007795685741919009    5    1    9    5
 0.01820966008486824    5    1   10    2
 -0.08699164265095993    5    1   10    3
 -0.05530128068453548    5    1   10    4
 0.0002898482494209636    5    1   10    5
 0.03407714897099301    5    1   11    2
 -0.08714072117195357    5    1   11    3
 0.1363851048316581    5    1   11    4