 &FCI NORB=  16,NELEC=10,MS2=2,
  ORBSYM=1,1,1,1,1,1,1,1,1,1,1,1,1,1,1,1
  ISYM=1,
 &END
 0.6692515605480263    1    1    1    1
 -0.0003152182284982194    1    1    2    1
 0.625972837601467    1    1    2    2
 0.002109638366912997    1    1    3    1
 0.01264012901066338    1    1    3    2
 0.7290134199290608    1    1    3    3
 -0.003128931408726235    1    1    4    1
 0.0207650927335126    1    1    4    2
 -0.002832226518489592    1    1    4    3
 0.6929409019138502    1    1    4    4
 -0.001992492860619456    1    1    5    1
 -0.01899553262913624    1    1    5    2
 0.01532590624782965    1    1    5    3
 -0.04787065991736189    1    1    5    4
 0.3756499956104106    1    1    5    5
 -0.08652056918739182    1    1    6    1
 -0.0005643055311917514    1    1    6    2
 -3.151157441858704e-05    1    1    6    3
 -6.769541908609178e-05    1    1    6    4
 -0.00420644170229708    1    1    6    5
 0.3300041395100873    1    1    6    6
 0.0664934387681405    1    1    7    1
 -0.001366627401802724    1    1    7    2
 0.002401514819857194    1    1    7    3
 0.0002063318684988888    1    1    7    4
 -0.01068678004297496    1    1    7    5
 0.06017538311932256    1    1    7    6
 0.6967104515575804    1    1    7    7
 -0.01792457865097495    1    1    8    1
 0.002731692016420084    1    1    8    2
 0.001087274631837144    1    1    8    3
 -0.0007502373091234993    1    1    8    4
 -0.006442553097875585    1    1    8    5
 0.03092672051609495    1    1    8    6
 0.06389192501343617    1    1    8    7
 0.6094549332157031    1    1    8    8
 -0.02880306661343257    1    1    9    1
 -0.00205204093705302    1    1    9    2
 0.001198930332455658    1    1    9    3
 -0.0005946481445990408    1    1    9    4
 -0.004120791311213689    1    1    9    5
 -0.06171517662476352    1    1    9    6
 0.01458861579350129    1    1    9    7
 0.03665917440253399    1    1    9    8
 0.6444878812969156    1    1    9    9
 0.005526452790995506    1    1   10    1
 0.0003517171292645033    1    1   10    2
 -0.001030136597442416    1    1   10    3
 0.001590122488351761    1    1   10    4
 0.0009088420262539465    1    1   10    5
 0.02563810870210464    1    1   10    6
 -0.0001891966029156852    1    1   10    7
 -0.01614942844844149    1    1   10    8
 0.001091322190484939    1    1   10    9
 0.7334153432128389    1    1   10   10
 -0.05145137694305794    1    1   11    1
 -0.0003257383115645406    1    1   11    2
 2.632595827477963e-05    1    1   11    3
 0.001822852979648161    1    1   11    4
 -0.006422931090511747    1    1   11    5
 -0.01657017488808843    1    1   11    6
 0.003832973203600688    1    1   11    7
 0.03676543458088288    1    1   11    8
 -0.03760354860834535    1    1   11    9
 0.03245568276332329    1    1   11   10
 0.6684130130613557    1    1   11   11
 0.0007364660362000463    1    1   12    1
 -0.01284566019352542    1    1   12    2
 -0.04061621598308586    1    1   12    3
 0.03376779268926619    1    1   12    4
 -0.1887527755835016    1    1   12    5
 -0.002720211328385599    1    1   12    6
 -0.009550676030809941    1    1   12    7
 0.000284767665504046    1    1   12    8
 -1.486631363851153e-06    1    1   12    9
 0.0002128559233764461    1    1   12   10
 -0.002845104770178675    1    1   12   11
 0.5236536271291272    1    1   12   12
 -0.0004946509483011383    1    1   13    1
 -0.004296200181785632    1    1   13    2
 0.02917485883796665    1    1   13    3
 0.01237134363853973    1    1   13    4
 -0.01718532093778766    1    1   13    5
 0.0003008594548970338    1    1   13    6
 -0.0002394816083720599    1    1   13    7
 0.002441272914066262    1    1   13    8
 0.0009336245513807996    1    1   13    9
 0.0002894931743256668    1    1   13   10
 -0.001534512170238986    1    1   13   11
 -0.02126401579683061    1    1   13   12
 0.6808046540296104    1    1   13   13
 0.0001596081870879756    1    1   14    1
 0.05625465771404286    1    1   14    2
 -0.01834819548075826    1    1   14    3
 -0.005967275925102586    1    1   14    4
 0.01869645603087857    1    1   14    5
 0.0002731725986029748    1    1   14    6
 0.002934652545914572    1    1   14    7
 -0.001509183989780612    1    1   14    8
 0.0006501145664256983    1    1   14    9
 0.0004170263215168279    1    1   14   10
 0.002289062913751187    1    1   14   11
 -0.01959218287236603    1    1   14   12
 0.03854886336789431    1    1   14   13
 0.6924364490921422    1    1   14   14
 -0.000599766108561689    1    1   15    1
 0.02298803233309802    1    1   15    2
 0.005880834125598568    1    1   15    3
 -0.06801417566940685    1    1   15    4
 -0.01205918226036331    1    1   15    5
 -0.00143059838433458    1    1   15    6
 0.001663696431702077    1    1   15    7
 -0.0015481361425491    1    1   15    8
 0.001408915125196832    1    1   15    9
 -0.002021600997027015    1    1   15   10
 -7.540948626053381e-05    1    1   15   11
 0.06360656040431278    1    1   15   12
 0.03068249737205272    1    1   15   13
 -0.03372233434842525    1    1   15   14
 0.679990667537127    1    1   15   15
 0.000141333763517118    1    1   16    1
 0.0001389764957319198    1    1   16    2
 -0.0001659346532059264    1    1   16    3
 0.001096678275683466    1    1   16    4
 0.0005820662951732697    1    1   16    5
 -0.1317296628757753    1    1   16    6
 -0.03265635579600297    1    1   16    7
 0.04020785714960035    1    1   16    8
 0.02685693231801461    1    1   16    9
 0.006299397163180634    1    1   16   10
 -0.02090010981905415    1    1   16   11
 -0.001291758419651238    1    1   16   12
 -0.0006619107303122498    1    1   16   13
 -0.001010980173333439    1    1   16   14
 0.003523815427485422    1    1   16   15
 0.6478001247546822    1    1   16   16
 -0.000315218228498261    2    1    1    1
 0.625972837601467    2    1    2    1
 0.001952739777843659    2    1    2    2
 0.01264012901066338    2    1    3    1
 -0.001035341948298643    2    1    3    2
 -0.001534293379160306    2    1    3    3
 0.02076509273351259    2    1    4    1
 -0.001510360261028403    2    1    4    2
 -3.662546606538614e-05    2    1    4    3
 0.0003023319036938137    2    1    4    4
 -0.01899553262913624    2    1    5    1
 8.64901635561364e-05    2    1    5    2
 -0.003008278096750418    2    1    5    3
 0.001642700336700205    2    1    5    4
 -0.01705886301275944    2    1    5    5
 -0.000564305531191734    2    1    6    1
 -0.2365715335143138    2    1    6    2
 0.09391846391404998    2    1    6    3
 -0.0483714659451312    2    1    6    4
 0.01696937676898513    2    1    6    5
 0.001842479171631568    2    1    6    6
 -0.001366627401802727    2    1    7    1
 -0.193028272469081    2    1    7    2
 0.1334210412074034    2    1    7    3
 0.03490693929666545    2    1    7    4
 0.1588434975404168    2    1    7    5
 -0.001332257469193098    2    1    7    6
 0.007377018092190166    2    1    7    7
 0.002731692016420071    2    1    8    1
 0.03564491739410389    2    1    8    2
 0.1172996391518297    2    1    8    3
 -0.3728986663985617    2    1    8    4
 -0.1298115643342356    2    1    8    5
 0.001393380978087476    2    1    8    6
 -0.01059582566040634    2    1    8    7
 0.004714259542061349    2    1    8    8
 -0.002052040937053029    2    1    9    1
 -0.07718751992492354    2    1    9    2
 -0.4671485782009603    2    1    9    3
 -0.02276960861179986    2    1    9    4
 0.2536232763481661    2    1    9    5
 0.002615724884859416    2    1    9    6
 0.01443863614570671    2    1    9    7
 0.0008168380164947015    2    1    9    8
 0.001635929678163718    2    1    9    9
 0.000351717129264531    2    1   10    1
 -0.1021239533229416    2    1   10    2
 -0.2024212961972405    2    1   10    3
 -0.2364301199152293    2    1   10    4
 -0.02871778770138717    2    1   10    5
 -5.186563145555267e-06    2    1   10    6
 -0.0005804063827629319    2    1   10    7
 0.002106414135451965    2    1   10    8
 0.001361923023559919    2    1   10    9
 -0.00135632821408635    2    1   10   10
 -0.000325738311564518    2    1   11    1
 0.6006409452522603    2    1   11    2
 0.0615705524584382    2    1   11    3
 0.01075866605545374    2    1   11    4
 0.1518841887955731    2    1   11    5
 8.682533538053195e-05    2    1   11    6
 0.007780757895733927    2    1   11    7
 -0.003633611942274573    2    1   11    8
 -0.00489465785776415    2    1   11    9
 0.000166859250908178    2    1   11   10
 -0.001957091265110063    2    1   11   11
 -0.01284566019352544    2    1   12    1
 -0.003990301304573859    2    1   12    2
 -0.0006631579741262555    2    1   12    3
 -0.0008559765162401761    2    1   12    4
 0.01230397484650602    2    1   12    5
 0.09220732407747542    2    1   12    6
 -0.2073354403379831    2    1   12    7
 0.1666773782973157    2    1   12    8
 -0.4013099960315447    2    1   12    9
 0.05736682284440615    2    1   12   10
 -0.2127465051910084    2    1   12   11
 0.0045982121764409    2    1   12   12
 -0.004296200181785656    2    1   13    1
 0.0001466605886770549    2    1   13    2
 -0.001838259127449331    2    1   13    3
 -7.736764975517854e-05    2    1   13    4
 0.003327669966743124    2    1   13    5
 0.1361487249279524    2    1   13    6
 -0.02661382732064361    2    1   13    7
 -0.152552205217579    2    1   13    8
 0.4174854429778495    2    1   13    9
 0.2556436929364851    2    1   13   10
 -0.4444231479380678    2    1   13   11
 0.006978831369576212    2    1   13   12
 -0.0001996521375213188    2    1   13   13
 0.05625465771404287    2    1   14    1
 -0.002560120891504265    2    1   14    2
 0.0004738750311197026    2    1   14    3
 0.001392705843655327    2    1   14    4
 -0.004775710119335845    2    1   14    5
 -0.004666584902260115    2    1   14    6
 0.237552452748494    2    1   14    7
 0.05873098433123997    2    1   14    8
 -0.3237104668248144    2    1   14    9
 0.2018017190378308    2    1   14   10
 -0.1838672793554597    2    1   14   11
 0.003049086908291267    2    1   14   12
 -0.001791744030089609    2    1   14   13
 0.0003435130132486974    2    1   14   14
 0.022988032333098    2    1   15    1
 -0.003154773218360121    2    1   15    2
 0.0009231758425017958    2    1   15    3
 0.001795308513635921    2    1   15    4
 -0.00122297719853963    2    1   15    5
 -0.07905534990536826    2    1   15    6
 0.05993530818098746    2    1   15    7
 -0.3533111547526552    2    1   15    8
 -0.1174064692869315    2    1   15    9
 0.1206156981248467    2    1   15   10
 0.2050568144349056    2    1   15   11
 -0.001281787621151391    2    1   15   12
 -0.0007436341725437327    2    1   15   13
 0.002757079309608911    2    1   15   14
 0.0006847453964625751    2    1   15   15
 0.000138976495731892    2    1   16    1
 0.01169497675949763    2    1   16    2
 -0.01163527139928452    2    1   16    3
 -0.0206829156375055    2    1   16    4
 -0.01374893295820663    2    1   16    5
 0.0002259642794965946    2    1   16    6
 0.001251831367708684    2    1   16    7
 -0.00337961978489465    2    1   16    8
 0.0003600422106878973    2    1   16    9
 -0.0009101162497346382    2    1   16   10
 0.003541939769246365    2    1   16   11
 0.1448164411467978    2    1   16   12
 -0.4850459050608349    2    1   16   13
 0.3754974697135554    2    1   16   14
 0.1283877692557014    2    1   16   15
 -0.001029782514600799    2    1   16   16
 0.625972837601467    2    2    1    1
 0.001952739777843687    2    2    2    1
 1.386139595730969    2    2    2    2
 -0.001035341948298643    2    2    3    1
 0.05917283853518851    2    2    3    2
 0.4578743924309745    2    2    3    3
 -0.001510360261028392    2    2    4    1
 0.04742046979723007    2    2    4    2
 0.008194343147899442    2    2    4    3
 0.3239819777162897    2    2    4    4
 8.649016355612944e-05    2    2    5    1
 0.04755428117358459    2    2    5    2
 -0.1624130895034498    2    2    5    3
 0.1171033501874047    2    2    5    4
 0.2311168917439534    2    2    5    5
 -0.2365715335143138    2    2    6    1
 -0.002083798400724923    2    2    6    2
 -0.00116784131749734    2    2    6    3
 -0.0009779300033095784    2    2    6    4
 0.00280295856141393    2    2    6    5
 0.169502869965756    2    2    6    6
 -0.193028272469081    2    2    7    1
 0.002432668453540725    2    2    7    2
 -0.01039300842708879    2    2    7    3
 0.007671439155549199    2    2    7    4
 0.0004057823749595627    2    2    7    5
 0.04306792702490803    2    2    7    6
 0.3024440547507219    2    2    7    7
 0.03564491739410384    2    2    8    1
 -0.0002992735456705338    2    2    8    2
 -0.002314748930827404    2    2    8    3
 -0.005170665233756285    2    2    8    4
 0.003450315861496218    2    2    8    5
 0.07672487138593229    2    2    8    6
 -0.1430096719903966    2    2    8    7
 0.6070774312712279    2    2    8    8
 -0.07718751992492354    2    2    9    1
 -0.002000420265876609    2    2    9    2
 -0.0008133231264897071    2    2    9    3
 0.0005606458772278514    2    2    9    4
 -0.003034177991461992    2    2    9    5
 -0.001605594493113507    2    2    9    6
 -0.04531806316865759    2    2    9    7
 -0.3286495385319835    2    2    9    8
 1.190150147068924    2    2    9    9
 -0.1021239533229416    2    2   10    1
 2.315382004779154e-05    2    2   10    2
 0.0007128170213390739    2    2   10    3
 -0.0003542093782837388    2    2   10    4
 0.001639052765013836    2    2   10    5
 0.07694208746700723    2    2   10    6
 0.02218680636423882    2    2   10    7
 0.02081505786108388    2    2   10    8
 0.144416331819742    2    2   10    9
 0.3302130014588557    2    2   10   10
 0.6006409452522604    2    2   11    1
 -0.001553143062216912    2    2   11    2
 0.001738473501370243    2    2   11    3
 0.001884450166283204    2    2   11    4
 -0.008151268757259883    2    2   11    5
 -0.3686495632461592    2    2   11    6
 -0.09456506547106608    2    2   11    7
 -0.1129258213310095    2    2   11    8
 -0.09973574097184802    2    2   11    9
 -0.3436397097851813    2    2   11   10
 1.117882868491007    2    2   11   11
 -0.003990301304573841    2    2   12    1
 -0.1613365406200279    2    2   12    2
 0.2772731152446103    2    2   12    3
 -0.1669725986540104    2    2   12    4
 -0.3149706149889033    2    2   12    5
 0.005031086411088676    2    2   12    6
 -0.01280812623022816    2    2   12    7
 0.003001989751677406    2    2   12    8
 -8.92752350681791e-06    2    2   12    9
 0.004536544195204511    2    2   12   10
 -0.009821788337592988    2    2   12   11
 0.5246670825134159    2    2   12   12
 0.0001466605886769733    2    2   13    1
 -0.5309521856985532    2    2   13    2
 -0.4353759238476119    2    2   13    3
 -0.03539324772539817    2    2   13    4
 0.08689547369114219    2    2   13    5
 0.001131783276215949    2    2   13    6
 0.002565715585401324    2    2   13    7
 0.005525020606227649    2    2   13    8
 0.002170972471813833    2    2   13    9
 -0.000398079839307168    2    2   13   10
 -0.001533005789738914    2    2   13   11
 -0.214387890931078    2    2   13   12
 1.090610858304861    2    2   13   13
 -0.002560120891504196    2    2   14    1
 -0.2359228014641375    2    2   14    2
 0.2367304223440564    2    2   14    3
 -0.08654378613697021    2    2   14    4
 -0.1546637394698189    2    2   14    5
 7.290711144435427e-05    2    2   14    6
 -0.009019014880212523    2    2   14    7
 -0.001731655484724961    2    2   14    8
 -0.001675014989939994    2    2   14    9
 -0.0006647195504716347    2    2   14   10
 0.002119357786248813    2    2   14   11
 0.3293757033673647    2    2   14   12
 -0.3374505490677219    2    2   14   13
 0.616092645409497    2    2   14   14
 -0.003154773218360104    2    2   15    1
 0.1772331227534352    2    2   15    2
 -0.001103666620237843    2    2   15    3
 0.2101885839618563    2    2   15    4
 0.1066516521279461    2    2   15    5
 -0.0004488687248889109    2    2   15    6
 0.008251079424248554    2    2   15    7
 -0.004928828643162202    2    2   15    8
 -0.002404132755795199    2    2   15    9
 -0.001126700559939312    2    2   15   10
 0.0001016496314850731    2    2   15   11
 -0.115615705806634    2    2   15   12
 -0.2175998897677968    2    2   15   13
 0.1095369861482623    2    2   15   14
 0.3695581288548344    2    2   15   15
 0.01169497675949767    2    2   16    1
 -0.003004056176231869    2    2   16    2
 0.002006442461083356    2    2   16    3
 0.001611054161813289    2    2   16    4
 -0.001962221306949786    2    2   16    5
 -0.08511739617843035    2    2   16    6
 0.1443408991663281    2    2   16    7
 0.109168002113324    2    2   16    8
 -0.6470248660692133    2    2   16    9
 -0.03254582537008384    2    2   16   10
 0.1961286930217017    2    2   16   11
 -0.003443251281769828    2    2   16   12
 0.00070521455951272    2    2   16   13
 0.001755216338313749    2    2   16   14
 0.002481020091434197    2    2   16   15
 0.6567152166872345    2    2   16   16
 0.002109638366913094    3    1    1    1
 0.0126401290106634    3    1    2    1
 -0.001035341948298636    3    1    2    2
 0.7290134199290608    3    1    3    1
 -0.00153429337916032    3    1    3    2
 0.007707168848526347    3    1    3    3
 -0.002832226518489592    3    1    4    1
 -3.66254660653792e-05    3    1    4    2
 0.0009490384681132558    3    1    4    3
 -0.004320186868399106    3    1    4    4
 0.01532590624782964    3    1    5    1
 -0.003008278096750435    3    1    5    2
 -0.01636415910769485    3    1    5    3
 0.01065523015141743    3    1    5    4
 -0.0242375504115573    3    1    5    5
 -3.15115744185801e-05    3    1    6    1
 0.09391846391404998    3    1    6    2
 -0.0736263223134917    3    1    6    3
 0.02279963473591004    3    1    6    4
 0.08162913041217487    3    1    6    5
 -0.0005636983497607322    3    1    6    6
 0.002401514819857194    3    1    7    1
 0.1334210412074034    3    1    7    2
 0.5757894927859277    3    1    7    3
 -0.1658508964350676    3    1    7    4
 0.3053020057702417    3    1    7    5
 0.006066548954024178    3    1    7    6
 0.02575535067465712    3    1    7    7
 0.001087274631837177    3    1    8    1
 0.1172996391518297    3    1    8    2
 0.03395124223771913    3    1    8    3
 -0.1843805168992763    3    1    8    4
 0.1710254609875111    3    1    8    5
 0.0006334183752408932    3    1    8    6
 0.007638590689936532    3    1    8    7
 -0.005774870559965808    3    1    8    8
 0.001198930332455689    3    1    9    1
 -0.4671485782009603    3    1    9    2
 0.04092758305630217    3    1    9    3
 -0.2026791420643162    3    1    9    4
 -0.008620336500231618    3    1    9    5
 0.001440884677598666    3    1    9    6
 -0.001504178280199133    3    1    9    7
 0.0003299524728134951    3    1    9    8
 -0.0006330150470582989    3    1    9    9
 -0.00103013659744236    3    1   10    1
 -0.2024212961972405    3    1   10    2
 0.2870028910124128    3    1   10    3
 0.4903179485412467    3    1   10    4
 0.009652122503327162    3    1   10    5
 0.0005608103752869631    3    1   10    6
 -0.004875357233391288    3    1   10    7
 -0.0005803845186880367    3    1   10    8
 -0.001978686409110197    3    1   10    9
 0.0008837615600226223    3    1   10   10
 2.63259582747831e-05    3    1   11    1
 0.06157055245843818    3    1   11    2
 -0.04583416651751118    3    1   11    3
 0.05363886976412268    3    1   11    4
 -0.05467938807281801    3    1   11    5
 -0.001257535517614681    3    1   11    6
 -0.007495908521713994    3    1   11    7
 -0.003720251404720671    3    1   11    8
 -0.0004850104672346894    3    1   11    9
 -0.002769624726475128    3    1   11   10
 0.002178101073814016    3    1   11   11
 -0.04061621598308586    3    1   12    1
 -0.0006631579741262668    3    1   12    2
 -0.005565429244669276    3    1   12    3
 -0.001183202116442073    3    1   12    4
 0.01798291964081225    3    1   12    5
 -0.1245124185651022    3    1   12    6
 -0.5119489476794109    3    1   12    7
 -0.2601914379507129    3    1   12    8
 0.07404724358320107    3    1   12    9
 -0.0866179725229197    3    1   12   10
 0.1068293973093965    3    1   12   11
 5.606778744968242e-05    3    1   12   12
 0.02917485883796663    3    1   13    1
 -0.001838259127449338    3    1   13    2
 0.001309082233854633    3    1   13    3
 -0.0002530592413759192    3    1   13    4
 -0.006544009723555111    3    1   13    5
 0.1937101378500912    3    1   13    6
 0.2906447815697642    3    1   13    7
 -0.04981506323429808    3    1   13    8
 -0.04927301575374704    3    1   13    9
 -0.1224683465945885    3    1   13   10
 -0.3386700754843989    3    1   13   11
 0.003683798838350232    3    1   13   12
 -0.001443293582986942    3    1   13   13
 -0.01834819548075826    3    1   14    1
 0.0004738750311197443    3    1   14    2
 0.005406598509230309    3    1   14    3
 5.71175221355108e-05    3    1   14    4
 -0.01583695727080919    3    1   14    5
 0.179182150186795    3    1   14    6
 0.3393457069267589    3    1   14    7
 0.05099869331898518    3    1   14    8
 -0.09912667730948127    3    1   14    9
 -0.4291968142017615    3    1   14   10
 0.3430464420251506    3    1   14   11
 -0.006771914488570585    3    1   14   12
 0.002418894215689429    3    1   14   13
 0.001178611920937961    3    1   14   14
 0.005880834125598575    3    1   15    1
 0.0009231758425017819    3    1   15    2
 -0.003012022658905184    3    1   15    3
 -0.002525119485495005    3    1   15    4
 0.00972696611905011    3    1   15    5
 -0.08258940147314225    3    1   15    6
 -0.2233263058830752    3    1   15    7
 -0.1103885083775602    3    1   15    8
 -0.06777302852289679    3    1   15    9
 -0.4745969698404431    3    1   15   10
 -0.1939372761070424    3    1   15   11
 0.003569054028796474    3    1   15   12
 -0.001138299890840924    3    1   15   13
 -0.004109987430525347    3    1   15   14
 -0.0003306588214822548    3    1   15   15
 -0.0001659346532059125    3    1   16    1
 -0.01163527139928452    3    1   16    2
 -0.01246080441679159    3    1   16    3
 -0.004168306584577355    3    1   16    4
 -0.0009307578072163896    3    1   16    5
 -0.0001988048980272467    3    1   16    6
 -0.003142422868523321    3    1   16    7
 -0.001228456928977216    3    1   16    8
 -0.001632751801903493    3    1   16    9
 0.0008352245349455001    3    1   16   10
 -0.0002433952806660533    3    1   16   11
 0.04493718219673356    3    1   16   12
 -0.3973868418396494    3    1   16   13
 -0.5508771474199475    3    1   16   14
 0.1179521214047874    3    1   16   15
 -0.001530084642814303    3    1   16   16
 0.01264012901066337    3    2    1    1
 -0.001035341948298671    3    2    2    1
 0.05917283853518851    3    2    2    2
 -0.001534293379160306    3    2    3    1
 0.4578743924309744    3    2    3    2
 -0.01367729609113966    3    2    3    3
 -3.662546606539308e-05    3    2    4    1
 0.008194343147899436    3    2    4    2
 -0.04934944715669981    3    2    4    3
 -0.06462240352533502    3    2    4    4
 -0.003008278096750418    3    2    5    1
 -0.1624130895034498    3    2    5    2
 0.09992587073366389    3    2    5    3
 -0.08629724089710433    3    2    5    4
 0.01493148448207057    3    2    5    5
 0.09391846391405    3    2    6    1
 -0.001167841317497306    3    2    6    2
 -0.00124927257006012    3    2    6    3
 0.0004547863490537915    3    2    6    4
 -0.002196684128345023    3    2    6    5
 -0.01210744819261387    3    2    6    6
 0.1334210412074034    3    2    7    1
 -0.01039300842708875    3    2    7    2
 0.004744938293571664    3    2    7    3
 -0.001050409469300217    3    2    7    4
 -0.01698256439250288    3    2    7    5
 0.05260458136800537    3    2    7    6
 0.338429367350887    3    2    7    7
 0.1172996391518297    3    2    8    1
 -0.002314748930827373    3    2    8    2
 -0.00165498397766667    3    2    8    3
 0.004006803778807987    3    2    8    4
 -0.006167423705305353    3    2    8    5
 -0.06044683961364945    3    2    8    6
 0.07224025364734218    3    2    8    7
 0.07599155152574182    3    2    8    8
 -0.4671485782009603    3    2    9    1
 -0.0008133231264896828    3    2    9    2
 0.002850793757606104    3    2    9    3
 -0.0002549742934960207    3    2    9    4
 0.0004439557392410214    3    2    9    5
 0.2075117744422975    3    2    9    6
 0.07980933916959232    3    2    9    7
 0.16714749246584    3    2    9    8
 -0.0247758906744016    3    2    9    9
 -0.2024212961972405    3    2   10    1
 0.0007128170213391016    3    2   10    2
 -0.00113840224527087    3    2   10    3
 -0.0009792373948275951    3    2   10    4
 -0.0009161319189827607    3    2   10    5
 0.09141946097834502    3    2   10    6
 -0.02026284101872419    3    2   10    7
 -0.02191887006851459    3    2   10    8
 0.08961318046417736    3    2   10    9
 -0.4524417472061879    3    2   10   10
 0.06157055245843819    3    2   11    1
 0.001738473501370161    3    2   11    2
 7.76331918873191e-05    3    2   11    3
 0.002097825227571746    3    2   11    4
 -0.0006924538315021636    3    2   11    5
 -0.05291341396700433    3    2   11    6
 0.05349924936057238    3    2   11    7
 0.2252268847889458    3    2   11    8
 -0.4517309500518635    3    2   11    9
 -0.05759513942169724    3    2   11   10
 0.0585999966822654    3    2   11   11
 -0.0006631579741262494    3    2   12    1
 0.2772731152446103    3    2   12    2
 -0.1812870560624259    3    2   12    3
 0.1514021662600337    3    2   12    4
 0.006211548896598852    3    2   12    5
 0.0004090890763744299    3    2   12    6
 0.004329450090250433    3    2   12    7
 -0.003797825682558009    3    2   12    8
 0.005182514360031325    3    2   12    9
 0.0009912751054033334    3    2   12   10
 -0.0009713653871052728    3    2   12   11
 -0.03770880794905355    3    2   12   12
 -0.00183825912744932    3    2   13    1
 -0.4353759238476119    3    2   13    2
 0.1026444344896394    3    2   13    3
 0.06818121788290814    3    2   13    4
 -0.007340265737037317    3    2   13    5
 0.0002926136728477139    3    2   13    6
 -0.00382460772554474    3    2   13    7
 0.00240763369887151    3    2   13    8
 -0.0005950114120680406    3    2   13    9
 0.0003618183164183428    3    2   13   10
 -0.0009112422364047253    3    2   13   11
 -0.01831356060790501    3    2   13   12
 0.4665560173418164    3    2   13   13
 0.0004738750311197304    3    2   14    1
 0.2367304223440563    3    2   14    2
 0.2835582615383171    3    2   14    3
 0.1580906043610634    3    2   14    4
 0.1525217938341966    3    2   14    5
 -0.0008217245552286298    3    2   14    6
 0.002650779200515653    3    2   14    7
 -0.002056720288342091    3    2   14    8
 0.001933287775005357    3    2   14    9
 0.0002158106534207449    3    2   14   10
 -0.002008496527620258    3    2   14   11
 -0.2849067400754685    3    2   14   12
 -0.03703277065807122    3    2   14   13
 -0.3738563551886829    3    2   14   14
 0.0009231758425017819    3    2   15    1
 -0.001103666620237861    3    2   15    2
 0.1018930821108488    3    2   15    3
 0.1985339150663586    3    2   15    4
 -0.0808233093314598    3    2   15    5
 -0.0001832098657026972    3    2   15    6
 -0.004794873072398839    3    2   15    7
 0.001701163579756841    3    2   15    8
 0.0001126189812172447    3    2   15    9
 -3.524692536661933e-05    3    2   15   10
 0.001874223586309095    3    2   15   11
 0.1133315147216704    3    2   15   12
 -0.1610429199984248    3    2   15   13
 -0.05974089563121274    3    2   15   14
 -0.04996952671730624    3    2   15   15
 -0.01163527139928455    3    2   16    1
 0.002006442461083287    3    2   16    2
 0.0004257924997681101    3    2   16    3
 -0.0009116274784578618    3    2   16    4
 0.001419859231991684    3    2   16    5
 -0.09209947611961911    3    2   16    6
 -0.1668494073618839    3    2   16    7
 -0.02225146479827171    3    2   16    8
 0.001582577443503267    3    2   16    9
 -0.277398756950569    3    2   16   10
 0.4383810809365187    3    2   16   11
 -0.006469506086744735    3    2   16   12
 0.003969710172340782    3    2   16   13
 -0.00076338608776165    3    2   16   14
 -0.001680487175653396    3    2   16   15
 0.00283809061609281    3    2   16   16
 0.7290134199290607    3    3    1    1
 -0.001534293379160279    3    3    2    1
 0.4578743924309744    3    3    2    2
 0.007707168848526291    3    3    3    1
 -0.01367729609113963    3    3    3    2
 1.2791551341084    3    3    3    3
 0.0009490384681132835    3    3    4    1
 -0.04934944715669978    3    3    4    2
 0.04246802550815301    3    3    4    3
 0.4673023469147599    3    3    4    4
 -0.01636415910769485    3    3    5    1
 0.09992587073366389    3    3    5    2
 0.2382805222106835    3    3    5    3
 -0.09888703777184796    3    3    5    4
 0.1846083698519994    3    3    5    5
 -0.07362632231349167    3    3    6    1
 -0.001249272570060113    3    3    6    2
 0.004789956579539081    3    3    6    3
 -0.0006073344968357611    3    3    6    4
 -0.008240918895338246    3    3    6    5
 0.1567867279944157    3    3    6    6
 0.5757894927859277    3    3    7    1
 0.004744938293571662    3    3    7    2
 0.02100098054680098    3    3    7    3
 -0.002419013304423463    3    3    7    4
 -0.03716336701146832    3    3    7    5
 0.2502872222693007    3    3    7    6
 1.279821993623749    3    3    7    7
 0.03395124223771913    3    3    8    1
 -0.001654983977666684    3    3    8    2
 0.00426504117271986    3    3    8    3
 0.003104479928685846    3    3    8    4
 -0.01565254794115512    3    3    8    5
 0.08225810636017042    3    3    8    6
 0.3684845185997666    3    3    8    7