 &FCI NORB=  16,NELEC=10,MS2=2,
  ORBSYM=1,1,1,1,1,1,1,1,1,1,1,1,1,1,1,1
  ISYM=1,
 &END
 0.5244815371810866    1    1    1    1
 1.301042606982605e-15    1    1    2    1
 0.5570917724782188    1    1    2    2
 -1.318389841742373e-15    1    1    3    1
 -0.01853218394365132    1    1    3    2
 0.5400831912062409    1    1    3    3
 0.007630853921392391    1    1    4    2
 0.01071639915999862    1    1    4    3
 0.5278520738700514    1    1    4    4
 0.003467526735784732    1    1    5    2
 -0.002971551858055385    1    1    5    3
 0.005283719163821697    1    1    5    4
 0.3151813922223425    1    1    5    5
 -0.06994867030819056    1    1    6    1
 0.2812666199551655    1    1    6    6
 -0.01043550442579405    1    1    7    1
 -0.02250607836320163    1    1    7    6
 0.5266847474311539    1    1    7    7
 -0.005194191267489771    1    1    8    1
 -1.179422228284044e-15    1    1    8    5
 0.0003472335427836671    1    1    8    6
 0.01499966888510783    1    1    8    7
 0.5240770998467775    1    1    8    8
 -0.0220648612265316    1    1    9    1
 -0.004983104341128492    1    1    9    6
 0.008397065728641807    1    1    9    7
 -0.01485022290600496    1    1    9    8
 0.5117058546224041    1    1    9    9
 -0.02291618268094851    1    1   10    1
 -1.35308431126191e-15    1    1   10    2
 -0.01949465270594611    1    1   10    6
 0.01066103392004305    1    1   10    7
 -0.005959401307748352    1    1   10    8
 -0.007262384067726203    1    1   10    9
 0.5622040534971671    1    1   10   10
 -0.030592363683952    1    1   11    1
 -1.209102262755835e-15    1    1   11    2
 -0.04677789305203488    1    1   11    6
 8.830946117051406e-05    1    1   11    7
 0.006757512355380361    1    1   11    8
 0.01160549569677977    1    1   11    9
 0.02711369267900214    1    1   11   10
 0.5537034684193173    1    1   11   11
 -0.02543456482146482    1    1   12    2
 0.003834077333565708    1    1   12    3
 0.004634283911868988    1    1   12    4
 0.1301836395946769    1    1   12    5
 0.4343519612199283    1    1   12   12
 -0.04496278502867641    1    1   13    2
 0.01642699965345105    1    1   13    3
 0.006897764622834737    1    1   13    4
 -0.02392965574815335    1    1   13    5
 1.190887666258078e-15    1    1   13   10
 1.934867197017631e-15    1    1   13   11
 0.003060819047388123    1    1   13   12
 0.5736676284567438    1    1   13   13
 0.01539838378180602    1    1   14    2
 0.01388332855387708    1    1   14    3
 -0.009873770682598489    1    1   14    4
 -0.02359452734437437    1    1   14    5
 0.02877458155130999    1    1   14   12
 0.004270938733374246    1    1   14   13
 0.5260913381181449    1    1   14   14
 0.01435623287455783    1    1   15    2
 0.005738236263818752    1    1   15    3
 -0.004548106600532687    1    1   15    4
 0.005637369968211129    1    1   15    5
 0.004869706710127914    1    1   15   12
 -0.0007739140999124544    1    1   15   13
 -0.01270644497448781    1    1   15   14
 0.5256806424283262    1    1   15   15
 0.001976915260781906    1    1   16    1
 -0.07930609414843727    1    1   16    6
 -0.01193315815059332    1    1   16    7
 0.006140330383255932    1    1   16    8
 0.01118777926713633    1    1   16    9
 -0.01371478562985158    1    1   16   10
 -0.04502934006821875    1    1   16   11
 -1.28196064874686e-15    1    1   16   13
 0.5158766190469228    1    1   16   16
 1.301042606982605e-15    2    1    1    1
 0.5570917724782188    2    1    2    1
 1.706967900361178e-15    2    1    2    2
 -0.01853218394365132    2    1    3    1
 -1.450228825916611e-15    2    1    3    2
 0.007630853921392405    2    1    4    1
 1.41813644161104e-15    2    1    4    2
 1.030425744730223e-15    2    1    4    3
 0.003467526735784725    2    1    5    1
 -1.036280436461645e-15    2    1    5    2
 1.460149275794853e-15    2    1    5    4
 -1.03205882425253e-15    2    1    5    5
 -0.02586480033663932    2    1    6    2
 -0.03357289772653665    2    1    6    3
 -0.010105230799113    2    1    6    4
 -0.02842677283085806    2    1    6    5
 -0.3371188592684389    2    1    7    2
 -0.1056213118534241    2    1    7    3
 -0.1069576818783593    2    1    7    4
 0.07637833731041546    2    1    7    5
 -0.03723261143600453    2    1    8    2
 0.02466541961673721    2    1    8    3
 -0.3278919917233733    2    1    8    4
 0.08936846592698001    2    1    8    5
 1.072059108153667e-15    2    1    8    7
 -0.01271326057343307    2    1    9    2
 0.06852345542479238    2    1    9    3
 -0.1578968969429513    2    1    9    4
 0.2306192948951444    2    1    9    5
 -1.698294282981294e-15    2    1    9    9
 -1.360023205165817e-15    2    1   10    1
 -0.1447682497969398    2    1   10    2
 0.4229013248997345    2    1   10    3
 0.06236118864173627    2    1   10    4
 0.02947543536692156    2    1   10    5
 -1.19522447494802e-15    2    1   11    1
 -0.4095731341254515    2    1   11    2
 0.1039911358175356    2    1   11    3
 0.06941128023148634    2    1   11    4
 -0.1250504962428881    2    1   11    5
 -1.196959198423997e-15    2    1   11    9
 3.250871793980536e-15    2    1   11   10
 4.446963630666545e-15    2    1   11   11
 -0.02543456482146483    2    1   12    1
 -1.863093013199091e-15    2    1   12    2
 0.01581837819111931    2    1   12    6
 0.2096869027578694    2    1   12    7
 0.1403217015122662    2    1   12    8
 0.3064629393884279    2    1   12    9
 0.1331521588664242    2    1   12   10
 -0.08911058979278166    2    1   12   11
 -0.04496278502867646    2    1   13    1
 0.04765454792980127    2    1   13    6
 -0.07328084811272441    2    1   13    7
 -0.04430799100340699    2    1   13    8
 0.04283734801430404    2    1   13    9
 0.3980290839228823    2    1   13   10
 0.4649332626489541    2    1   13   11
 0.01539838378180602    2    1   14    1
 -0.1086259147325294    2    1   14    6
 0.2866594153568583    2    1   14    7
 0.01564531374982128    2    1   14    8
 -0.2545194174283014    2    1   14    9
 0.1250949988569909    2    1   14   10
 0.01952439638914463    2    1   14   11
 -1.360023205165817e-15    2    1   14   14
 0.01435623287455782    2    1   15    1
 -0.01426487315898491    2    1   15    6
 -0.08861508954850135    2    1   15    7
 -0.3012400772853477    2    1   15    8
 -0.1394883870878389    2    1   15    9
 -0.07492208668342741    2    1   15   10
 0.02573993780637949    2    1   15   11
 0.02220669810876287    2    1   16    2
 -0.009937281265447462    2    1   16    3
 -0.003234566194882944    2    1   16    4
 -0.002506774621696062    2    1   16    5
 -1.117161918529064e-15    2    1   16   10
 -2.792904796322659e-15    2    1   16   11
 0.01261216933574408    2    1   16   12
 -0.5005199836126937    2    1   16   13
 0.2047926215873657    2    1   16   14
 0.05777086487272707    2    1   16   15
 0.5570917724782188    2    2    1    1
 1.675742877793596e-15    2    2    2    1
 1.070890462617376    2    2    2    2
 -1.464106613724425e-15    2    2    3    1
 -0.09436781101510866    2    2    3    2
 0.3691125068948381    2    2    3    3
 1.41813644161104e-15    2    2    4    1
 0.0209737823490503    2    2    4    2
 0.0368183939191898    2    2    4    3
 0.2932740489285709    2    2    4    4
 -1.036497276896142e-15    2    2    5    1
 0.04375113123675638    2    2    5    2
 0.02863214969013573    2    2    5    3
 -0.1588686329441752    2    2    5    4
 0.1703083161454869    2    2    5    5
 -0.02586480033663931    2    2    6    1
 0.03609135614667694    2    2    6    6
 -0.3371188592684389    2    2    7    1
 -1.826663820203578e-15    2    2    7    4
 -0.03775229465218803    2    2    7    6
 0.5228158706098365    2    2    7    7
 -0.03723261143600453    2    2    8    1
 -2.314771638256552e-15    2    2    8    2
 -1.19002030452009e-15    2    2    8    3
 -1.772033583237465e-15    2    2    8    5
 0.009665519066403942    2    2    8    6
 0.200788622404256    2    2    8    7
 0.4439018996050763    2    2    8    8
 -0.01271326057343307    2    2    9    1
 -1.866562460151044e-15    2    2    9    2
 -1.540434446667405e-15    2    2    9    3
 2.005340338229189e-15    2    2    9    4
 -2.221855512074544e-15    2    2    9    5
 0.0586659434032803    2    2    9    6
 0.03956291157244104    2    2    9    7
 0.311743444828074    2    2    9    8
 0.5301655572581131    2    2    9    9
 -0.1447682497969398    2    2   10    1
 -2.546574062733953e-15    2    2   10    2
 -1.052543469048928e-15    2    2   10    5
 -0.008421673157608181    2    2   10    6
 0.0503224506356436    2    2   10    7
 0.05146134640857012    2    2   10    8
 0.1264165149012123    2    2   10    9
 0.6818283468763922    2    2   10   10
 -0.4095731341254515    2    2   11    1
 -2.208302984918475e-15    2    2   11    2
 2.6402491304367e-15    2    2   11    3
 0.04483473271841343    2    2   11    6
 0.09674326021908333    2    2   11    7
 -0.1177919790361568    2    2   11    8
 -0.1086171696992436    2    2   11    9
 0.4313030623271876    2    2   11   10
 0.6992845634886095    2    2   11   11
 -1.863093013199091e-15    2    2   12    1
 -0.1108474125873238    2    2   12    2
 0.0934194873238372    2    2   12    3
 -0.2259638831085392    2    2   12    4
 0.2216954041704192    2    2   12    5
 1.300175245244617e-15    2    2   12    7
 0.3567951227373368    2    2   12   12
 -0.3621002257987666    2    2   13    2
 0.383915897455206    2    2   13    3
 0.1197776970731122    2    2   13    4
 -0.06999576070518213    2    2   13    5
 -2.206134580573504e-15    2    2   13    9
 4.021197437531487e-15    2    2   13   11
 -0.003736128740462133    2    2   13   12
 1.070582025589462    2    2   13   13
 -0.21385093186988    2    2   14    2
 0.001999204363127463    2    2   14    3
 0.04100788686439532    2    2   14    4
 -0.07234004686654268    2    2   14    5
 -1.391248227733399e-15    2    2   14    7
 1.321425607825333e-15    2    2   14    8
 2.300243329145246e-15    2    2   14    9
 -0.01905152735102237    2    2   14   12
 -0.1664281193868187    2    2   14   13
 0.4198671288232111    2    2   14   14
 0.06729418637877743    2    2   15    2
 -0.0720734080134702    2    2   15    3
 0.248990547145243    2    2   15    4
 -0.1436290781023267    2    2   15    5
 -1.300175245244617e-15    2    2   15    7
 -0.2262524519184571    2    2   15   12
 -0.0600402182813648    2    2   15   13
 0.03627851154316394    2    2   15   14
 0.2491703882637172    2    2   15   15
 0.02220669810876286    2    2   16    1
 1.183081410616182e-15    2    2   16    2
 -1.160530005428484e-15    2    2   16    4
 -0.08375772801214534    2    2   16    6
 0.1820387189000912    2    2   16    7
 0.00375483180807586    2    2   16    8
 -0.1640730405897698    2    2   16    9
 -0.303723680462486    2    2   16   10
 -0.3751374988008103    2    2   16   11
 -1.290634266126744e-15    2    2   16   14
 0.5288206335370746    2    2   16   16
 -1.283695372222837e-15    3    1    1    1
 -0.01853218394365132    3    1    2    1
 -1.450228825916611e-15    3    1    2    2
 0.5400831912062408    3    1    3    1
 0.01071639915999862    3    1    4    1
 1.037364638634131e-15    3    1    4    2
 -1.132774429812855e-15    3    1    4    4
 -0.002971551858055364    3    1    5    1
 -0.03357289772653664    3    1    6    2
 -0.162001740951003    3    1    6    3
 0.008483781941950345    3    1    6    4
 0.0097019966162864    3    1    6    5
 -0.1056213118534241    3    1    7    2
 0.3758592608368999    3    1    7    3
 -0.08869383315710866    3    1    7    4
 -0.1074365356557124    3    1    7    5
 0.02466541961673719    3    1    8    2
 -0.04881683274268073    3    1    8    3
 0.1963458707242706    3    1    8    4
 0.2668317954282086    3    1    8    5
 1.050375064703957e-15    3    1    8    7
 0.06852345542479241    3    1    9    2
 -0.1361825475845668    3    1    9    3
 -0.3306641461218111    3    1    9    4
 -0.05166317830218439    3    1    9    5
 0.4229013248997346    3    1   10    2
 0.2636261679594729    3    1   10    3
 0.04145686579288878    3    1   10    4
 0.02292168607545735    3    1   10    5
 1.420738526825005e-15    3    1   10    8
 0.1039911358175355    3    1   11    2
 -0.1560599743495247    3    1   11    3
 0.001007174433498209    3    1   11    4
 0.02792837599311732    3    1   11    5
 -1.824929096727601e-15    3    1   11    7
 1.144917494144693e-15    3    1   11    9
 -2.26554885962571e-15    3    1   11   11
 0.003834077333565746    3    1   12    1
 -0.02206562666497854    3    1   12    6
 -0.1964523610789867    3    1   12    7
 0.3985750288173652    3    1   12    8
 -0.1108049308636321    3    1   12    9
 0.09900364205092024    3    1   12   10
 -0.01271961591940489    3    1   12   11
 1.545638617095335e-15    3    1   12   12
 0.01642699965345109    3    1   13    1
 0.01053843031823648    3    1   13    6
 -0.3329309465941509    3    1   13    7
 0.007696837822016561    3    1   13    8
 0.07364497834352897    3    1   13    9
 -0.1093990471012956    3    1   13   10
 -0.2194559881575658    3    1   13   11
 1.5781646822699e-15    3    1   13   13
 0.01388332855387707    3    1   14    1
 -0.1556142843738349    3    1   14    6
 -0.04423871280166524    3    1   14    7
 -0.0418893600677402    3    1   14    8
 -0.150730491939895    3    1   14    9
 0.5078370350228005    3    1   14   10
 -0.1024154325070451    3    1   14   11
 -1.058181320345852e-15    3    1   14   13
 0.005738236263818742    3    1   15    1
 -0.03564627790290005    3    1   15    6
 -0.1064219764414391    3    1   15    7
 0.1804330622215692    3    1   15    8
 -0.192942024107886    3    1   15    9
 -0.0908686528676074    3    1   15   10
 0.2118274902366783    3    1   15   11
 -1.021752127350339e-15    3    1   15   13
 1.223413731432643e-15    3    1   15   15
 -0.00993728126544749    3    1   16    2
 0.001339696298773396    3    1   16    3
 0.003620565288651619    3    1   16    4
 0.001738429345406375    3    1   16    5
 1.332267629550188e-15    3    1   16   11
 0.1257222205216204    3    1   16   12
 0.2184755353436068    3    1   16   13
 0.4661146232238009    3    1   16   14
 0.03942574619713377    3    1   16   15
 1.332267629550188e-15    3    1   16   16
 -0.01853218394365132    3    2    1    1
 -1.464106613724425e-15    3    2    2    1
 -0.09436781101510866    3    2    2    2
 0.3691125068948381    3    2    3    2
 0.07865123161109247    3    2    3    3
 1.030425744730223e-15    3    2    4    1
 0.03681839391918978    3    2    4    2
 0.01468110877511809    3    2    4    3
 0.004231254747184769    3    2    4    4
 0.02863214969013573    3    2    5    2
 0.05408596888307761    3    2    5    3
 -0.1259922923347779    3    2    5    4
 0.005057677250238405    3    2    5    5
 -0.03357289772653665    3    2    6    1
 0.04296579172152819    3    2    6    6
 -0.1056213118534241    3    2    7    1
 -0.03388552342164276    3    2    7    6
 -0.04295358650188885    3    2    7    7
 0.0246654196167372    3    2    8    1
 -1.20346441145891e-15    3    2    8    2
 0.001593730281170003    3    2    8    6
 0.09422226288342199    3    2    8    7
 -0.07285356332359966    3    2    8    8
 0.06852345542479241    3    2    9    1
 -1.536964999715451e-15    3    2    9    2
 0.05488759296750699    3    2    9    6
 -0.06773083353329941    3    2    9    7
 0.2647606558702775    3    2    9    8
 0.1409781970932084    3    2    9    9
 0.4229013248997345    3    2   10    1
 -0.1397188503480344    3    2   10    6
 0.02238948631475425    3    2   10    7
 0.06677793154812009    3    2   10    8
 -0.1324203792515441    3    2   10    9
 0.1998317074540364    3    2   10   10
 0.1039911358175356    3    2   11    1
 2.626371342628886e-15    3    2   11    2
 -2.394800152056772e-05    3    2   11    6
 -0.08045645805928354    3    2   11    7
 -0.12076768050129    3    2   11    8
 -0.04451030132580203    3    2   11    9
 -0.3318216770482016    3    2   11   10
 -0.249960994285607    3    2   11   11
 0.09341948732383722    3    2   12    2
 0.1262858238716867    3    2   12    3
 -0.1690759122802834    3    2   12    4
 0.003878720364141747    3    2   12    5
 1.203898092327904e-15    3    2   12    7
 -0.002816459611005462    3    2   12   12
 0.383915897455206    3    2   13    2
 -0.02955925066747068    3    2   13    3
 -0.005156467698899337    3    2   13    4
 0.02975966996507081    3    2   13    5
 -0.0618884683264663    3    2   13   12
 -0.3634663669625953    3    2   13   13
 0.001999204363127477    3    2   14    2
 0.3583570461606718    3    2   14    3
 0.1293546871089338    3    2   14    4
 -0.02844595573522966    3    2   14    5
 1.179611963664229e-15    3    2   14    8
 -1.249000902703301e-15    3    2   14   10
 0.02255233438839225    3    2   14   12
 -0.1693731750496221    3    2   14   13
 0.3716353417520556    3    2   14   14
 -0.0720734080134702    3    2   15    2
 -0.02911418130889987    3    2   15    3
 -0.01031473216724618    3    2   15    4
 -0.126336899373766    3    2   15    5
 -0.1710515213097911    3    2   15   12
 0.04660796006590499    3    2   15   13
 0.05587351280032943    3    2   15   14
 0.001075132228140972    3    2   15   15
 -0.009937281265447448    3    2   16    1
 -0.07393260541974848    3    2   16    6
 0.2661508620954542    3    2   16    7
 -0.005983024557278149    3    2   16    8
 -0.1547139157614898    3    2   16    9
 0.2685869107387825    3    2   16   10
 0.1725171504963918    3    2   16   11
 -1.855286757557195e-15    3    2   16   13
 0.0005246317859746025    3    2   16   16
 0.5400831912062408    3    3    1    1
 0.3691125068948382    3    3    2    2
 0.0786512316110924    3    3    3    2
 1.065697751118575    3    3    3    3
 0.01468110877511809    3    3    4    2
 0.01995830858358684    3    3    4    3
 0.2984162232643799    3    3    4    4
 0.0540859688830776    3    3    5    2
 -0.09425634259433978    3    3    5    3
 0.1495801796446903    3    3    5    4
 0.1671070046968457    3    3    5    5
 -0.162001740951003    3    3    6    1
 0.09806801463244721    3    3    6    6
 0.3758592608368999    3    3    7    1
 -0.08917614487023529    3    3    7    6
 0.6410584590038756    3    3    7    7
 -0.04881683274268071    3    3    8    1
 0.00677334497828111    3    3    8    6
 -0.3256285596612444    3    3    8    7
 0.583356749140556    3    3    8    8
 -0.1361825475845668    3    3    9    1
 0.09166838866135957    3    3    9    6
 0.004193540884036673    3    3    9    7
 -0.2617697760903324    3    3    9    8
 0.4048745027568103    3    3    9    9
 0.2636261679594729    3    3   10    1
 -0.2468806451075549    3    3   10    6
 0.08593182150026227    3    3   10    7
 0.0271396194091866    3    3   10    8
 -0.1796697501633693    3    3   10    9
 0.9710549324581912    3    3   10   10
 -0.1560599743495247    3    3   11    1
 -1.249000902703301e-15    3    3   11    3
 0.04982515004896952    3    3   11    6
 -0.03348422334642409    3    3   11    7
 0.09822573175064377    3    3   11    8
 -0.03296545735214503    3    3   11    9
 -0.09862531314456378    3    3   11   10
 0.2399477518812481    3    3   11   11
 0.1262858238716867    3    3   12    2
 -0.09730510917851207    3    3   12    3
 0.2565658316479812    3    3   12    4
 0.2602428293499294    3    3   12    5
 1.798908244587949e-15    3    3   12    8
 1.068589661201713e-15    3    3   12   10
 0.4524471078904412    3    3   12   12
 -0.02955925066747068    3    3   13    2
 -0.2444850738126878    3    3   13    3
 0.00637803424265081    3    3   13    4
 0.05577293056655784    3    3   13    5
 0.1553331396431539    3    3   13   12
 0.3965712940741261    3    3   13   13
 0.3583570461606719    3    3   14    2
 0.3292020737713991    3    3   14    3
 0.1294866386062217    3    3   14    4
 0.01768026296131532    3    3   14    5
 1.693090112553364e-15    3    3   14    7
 1.297573160030652e-15    3    3   14    8
 1.332267629550188e-15    3    3   14   10
 1.013078509970455e-15    3    3   14   11
 0.2268830395115163    3    3   14   12
 0.1323793642079665    3    3   14   13
 0.9897512254969976    3    3   14   14
 -0.02911418130889987    3    3   15    2
 -0.1384368458760745    3    3   15    3
 0.2008878578352213    3    3   15    4
 0.1361831285226046    3    3   15    5
 0.2045375472098033    3    3   15   12
 -0.00538074491310123    3    3   15   13
 -0.02392300074309188    3    3   15   14
 0.2608968865638001    3    3   15   15
 0.001339696298773382    3    3   16    1
 -0.1345729304791531    3    3   16    6
 -0.2321264814554434    3    3   16    7
 0.0797357090589277    3    3   16    8
 -0.1495273868565312    3    3   16    9
 0.4064143275363554    3    3   16   10
 -0.1493436984845759    3    3   16   11
 1.346145417358002e-15    3    3   16   12
 1.249000902703301e-15    3    3   16   14
 0.5215563989206309    3    3   16   16
 0.007630853921392405    4    1    2    1
 1.41813644161104e-15    4    1    2    2
 0.01071639915999861    4    1    3    1
 1.033895191682177e-15    4    1    3    2
 0.5278520738700514    4    1    4    1
 -1.129304982860901e-15    4    1    4    3
 0.005283719163821683    4    1    5    1
 1.480911747397951e-15    4    1    5    2
 -1.084554538191562e-15    4    1    5    4
 -0.010105230799113    4    1    6    2
 0.008483781941950352    4    1    6    3
 -0.2145965356203905    4    1    6    4
 -0.02470503672488524    4    1    6    5
 -0.1069576818783593    4    1    7    2
 -0.08869383315710867    4    1    7    3
 -0.08159196681017372    4    1    7    4
 0.2393296907065074    4    1    7    5
 -0.3278919917233733    4    1    8    2
 0.1963458707242706    4    1    8    3
 0.05938079252386655    4    1    8    4
 0.061601659620302    4    1    8    5
 -1.145296964905063e-15    4    1    8    7
 -1.166845483083212e-15    4    1    8    8
 -0.1578968969429513    4    1    9    2
 -0.3306641461218111    4    1    9    3
 0.1118806482397692    4    1    9    4
 -0.114189010860752    4    1    9    5
 1.41889538313178e-15    4    1    9    8
 -1.072926469891655e-15    4    1    9    9
 0.06236118864173627    4    1   10    2
 0.04145686579288879    4    1   10    3
 -0.1517409055136675    4    1   10    4
 -0.08903280778617688    4    1   10    5
 0.06941128023148635    4    1   11    2
 0.001007174433498207    4    1   11    3
 0.4700585856148982    4    1   11    4
 0.03743637868412237    4    1   11    5
 -2.31943370759824e-15    4    1   11    8
 0.004634283911868984    4    1   12    1
 -0.03012749443023902    4    1   12    6
 0.3853099686846598    4    1   12    7
 0.0731888952551086    4    1   12    8
 -0.1094656874933733    4    1   12    9
 -0.09918456476667083    4    1   12   10
 0.004369793537515152    4    1   12   11
 0.006897764622834747    4    1   13    1
 1.025262231883761e-15    4    1   13    5
 0.02668095644400532    4    1   13    6
 -0.09775864124430828    4    1   13    7
 -0.3688840679671805    4    1   13    8
 -0.05107583385637594    4    1   13    9
 0.01995025265154409    4    1   13   10
 -0.06505131982326044    4    1   13   11
 -0.009873770682598485    4    1   14    1
 -0.004529072052978908    4    1   14    6
 0.07991977447888966    4    1   14    7
 -0.06770916367701353    4    1   14    8
 0.2745153891786589    4    1   14    9
 0.1819131095823931    4    1   14   10
 -0.1769316981419019    4    1   14   11
 -0.004548106600532715    4    1   15    1
 0.2445711208772368    4    1   15    6
 0.01313592463704759    4    1   15    7
 0.06200774207817648    4    1   15    8
 -0.3174682294750805    4    1   15    9
 0.14180733576078    4    1   15   10
 -0.4182481076765128    4    1   15   11
 1.999675381877952e-15    4    1   15   13
 1.474514954580286e-15    4    1   15   14
 -0.00323456619488293    4    1   16    2
 0.003620565288651616    4    1   16    3
 -0.007528197479689901    4    1   16    4
 -0.0009347299958316487    4    1   16    5
 -1.31492039479042e-15    4    1   16    9
 0.008763022677794233    4    1   16   12
 -0.03413647463428456    4    1   16   13
 0.05719784775464366    4    1   16   14
 -0.529352252406366    4    1   16   15
 0.007630853921392398    4    2    1    1
 1.41813644161104e-15    4    2    2    1
 0.0209737823490503    4    2    2    2
 1.044303532538038e-15    4    2    3    1
 0.0368183939191898    4    2    3    2
 0.01468110877511809    4    2    3    3
 0.2932740489285709    4    2    4    2
 0.004231254747184762    4    2    4    3
 -0.005792665772924734    4    2    4    4
 1.467033959590136e-15    4    2    5    1
 -0.1588686329441753    4    2    5    2
 -0.1259922923347779    4    2    5    3
 -0.04831037976234423    4    2    5    4
 -0.02343529001369588    4    2    5    5
 -0.010105230799113    4    2    6    1
 0.0008652697959401819    4    2    6    6
 -0.1069576818783593    4    2    7    1
 -1.86092460885412e-15    4    2    7    2
 -1.344871479805332e-15    4    2    7    5
 -0.01285619911295805    4    2    7    6
 0.3352359243021509    4    2    7    7
 -0.3278919917233733    4    2    8    1
 -0.02118150685919191    4    2    8    6
 0.20000931360947    4    2    8    7
 0.007896894739224882    4    2    8    8
 -0.1578968969429513    4    2    9    1
 2.03222855210683e-15    4    2    9    2
 -2.531395232319156e-15    4    2    9    4
 -0.02584618499528304    4    2    9    6
 0.2995269318466201    4    2    9    7
 0.04973568358863415    4    2    9    8
 -0.2638299761802504    4    2    9    9
 0.06236118864173627    4    2   10    1
 -0.03999149203687376    4    2   10    6
 0.007300074232938396    4    2   10    7
 -0.03260846301273105    4    2   10    8
 -0.1767901800988407    4    2   10    9
 0.005048746664738042    4    2   10   10
 0.06941128023148635    4    2   11    1
 1.003537530852583e-15    4    2   11    4
 0.02864249268787328    4    2   11    6
 -0.1489829056386415    4    2   11    7
 -0.04168715607115178    4    2   11    8
 0.0773947387103076    4    2   11    9
 0.01802140115015815    4    2   11   10
 -0.0823865627729251    4    2   11   11
 -0.2259638831085392    4    2   12    2
 -0.1690759122802834    4    2   12    3
 -0.08896221449641918    4    2   12    4
 0.007035433538609086    4    2   12    5
 1.049345072640095e-15    4    2   12    8
 0.07168800405064733    4    2   12   12
 0.1197776970731122    4    2   13    2
 -0.005156467698899339    4    2   13    3
 0.2591392597021109    4    2   13    4
 -0.0875752425126916    4    2   13    5
 -0.1527043905807459    4    2   13   12
 0.03397076459324707    4    2   13   13
 0.04100788686439531    4    2   14    2
 0.1293546871089338    4    2   14    3
 -0.06668871498090369    4    2   14    4
 0.1784433238095824    4    2   14    5
 -1.213222231011279e-15    4    2   14    8
 -1.257674520083185e-15    4    2   14    9
 0.2572850513028017    4    2   14   12
 -0.04456025485337024    4    2   14   13
 -0.04528883749886517    4    2   14   14
 0.248990547145243    4    2   15    2
 -0.01031473216724618    4    2   15    3
 0.006099576385478168    4    2   15    4
 -0.02044435607193622    4    2   15    5
 2.445526420258304e-15    4    2   15   11
 -0.0490879067218189    4    2   15   12
 0.2314585419790671    4    2   15   13
 -0.08453132610504552    4    2   15   14
 -0.06679686648257684    4    2   15   15
 -0.003234566194882951    4    2   16    1
 -1.144917494144693e-15    4    2   16    2
 -1.241194647061405e-15    4    2   16    5
 0.001958357365903609    4    2   16    6
 0.1184205961909171    4    2   16    7
 0.3181373824065738    4    2   16    8
 0.1304758610569829    4    2   16    9
 0.0692963035303741    4    2   16   10
 -0.06121859987436845    4    2   16   11
 -0.01046115047027067    4    2   16   16
 0.01071639915999863    4    3    1    1
 1.044303532538038e-15    4    3    2    1
 0.03681839391918979    4    3    2    2
 0.01468110877511809    4    3    3    2
 0.01995830858358683    4    3    3    3
 -1.124968174170959e-15    4    3    4    1
 0.004231254747184754    4    3    4    2
 0.2984162232643799    4    3    4    3
 -0.04560491707615824    4    3    4    4
 -0.125992292334778    4    3    5    2
 0.1495801796446903    4    3    5    3
 0.04749391717176775    4    3    5    4
 -0.01412190744750621    4    3    5    5
 0.008483781941950354    4    3    6    1
 -0.01997766365963159    4    3    6    6
 -0.08869383315710869    4    3    7    1
 -1.032106258097576e-15    4    3    7    5
 -0.004027534355608669    4    3    7    6
 -0.1778503950434898    4    3    7    7
 0.1963458707242706    4    3    8    1
 -2.045238978176656e-15    4    3    8    4
 -0.03264459642293874    4    3    8    6
 0.3847177859947116    4    3    8    7
 0.08147154126160162    4    3    8    8
 -0.3306641461218111    4    3    9    1
 1.262228169207624e-15    4    3    9    5
 0.05295955546885631    4    3    9    6
 -0.08089880397211537    4    3    9    7
 -0.2086877741381127    4    3    9    8
 0.04115239469640126    4    3    9    9
 0.04145686579288878    4    3   10    1
 -0.07801217555502897    4    3   10    6
 0.04256053150741275    4    3   10    7
 -0.1442334327219106    4    3   10    8
 0.01663772764344458    4    3   10    9
 0.1716251688316792    4    3   10   10
 0.001007174433498211    4    3   11    1
 -1.396343977944081e-15    4    3   11    5
 0.08197286412804045    4    3   11    6
 0.03683329260012885    4    3   11    7
 0.07103224705075058    4    3   11    8
 -0.08977554522394932    4    3   11    9
 0.01135911437621064    4    3   11   10
 -0.09572534239110088    4    3   11   11
 -0.1690759122802834    4    3   12    2
 0.2565658316479812    4    3   12    3
 0.02304355758308741    4    3   12    4
 -0.04237703360766727    4    3   12    5
 -1.691789069946381e-15    4    3   12   11
 -0.09046956675046011    4    3   12   12
 -0.005156467698899327    4    3   13    2
 0.006378034242650805    4    3   13    3
 -0.08409104300726442    4    3   13    4