 &FCI NORB=  14,NELEC= 8,MS2=2,
  ORBSYM=1,1,1,1,1,1,1,1,1,1,1,1,1,1
  ISYM=1,
 &END
 0.07142857142857141    1    1    1    1
 0.07142857142857155    1    1    2    2
 0.07142857142857119    1    1    3    3
 0.0714285714285714    1    1    4    4
 0.07142857142857138    1    1    5    5
 0.07142857142857134    1    1    6    6
 0.07142857142857131    1    1    7    7
 0.07142857142857137    1    1    8    8
 0.07142857142857138    1    1    9    9
 0.07142857142857138    1    1   10   10
 0.0714285714285714    1    1   11   11
 0.07142857142857161    1    1   12   12
 0.07142857142857126    1    1   13   13
 0.07142857142857138    1    1   14   14
 0.07142857142857155    2    1    2    1
 -0.008164332296455874    2    1    4    2
 -0.04984339561382537    2    1    4    3
 0.04984339561382543    2    1    5    2
 -0.008164332296455867    2    1    5    3
 -0.04234330299770626    2    1    6    4
 0.02753298202897217    2    1    6    5
 0.02753298202897223    2    1    7    4
 0.04234330299770623    2    1    7    5
 -0.04040306956700284    2    1    8    6
 0.03030861886868481    2    1    8    7
 0.03030861886868477    2    1    9    6
 0.04040306956700281    2    1    9    7
 -0.05033607084180156    2    1   10    8
 -0.004159372593601502    2    1   10    9
 0.004159372593601496    2    1   11    8
 -0.05033607084180154    2    1   11    9
 0.0009432469638737742    2    1   12   10
 -0.05049881873201014    2    1   12   11
 0.05049881873201    2    1   13   10
 0.0009432469638737439    2    1   13   11
 0.07142735922811431    2    1   14   12
 -0.0004161370260508614    2    1   14   13
 0.07142857142857155    2    2    1    1
 0.1071428571428571    2    2    2    2
 0.03571428571428564    2    2    3    3
 -0.008164332296455874    2    2    4    1
 0.07142857142857137    2    2    4    4
 0.04984339561382543    2    2    5    1
 0.07142857142857122    2    2    5    5
 0.02405258956661675    2    2    6    2
 0.02640043823919424    2    2    6    3
 0.07142857142857134    2    2    6    6
 0.02640043823919425    2    2    7    2
 -0.02405258956661674    2    2    7    3
 0.07142857142857134    2    2    7    7
 0.03563400505486458    2    2    8    4
 0.002393300614531616    2    2    8    5
 0.07142857142857138    2    2    8    8
 -0.002393300614531595    2    2    9    4
 0.03563400505486455    2    2    9    5
 0.07142857142857136    2    2    9    9
 0.02670733706589996    2    2   10    6
 -0.02371135489443905    2    2   10    7
 0.07142857142857134    2    2   10   10
 -0.02371135489443901    2    2   11    6
 -0.02670733706589994    2    2   11    7
 0.0714285714285714    2    2   11   11
 -0.003605318480932523    2    2   12    8
 0.03553184322171705    2    2   12    9
 0.1071404327625149    2    2   12   12
 -0.03553184322171703    2    2   13    8
 -0.003605318480932498    2    2   13    9
 -0.000416129963869946    2    2   13   12
 0.03571671009462798    2    2   13   13
 0.0006490289607650659    2    2   14   10
 -0.05050345700614316    2    2   14   11
 0.07142857142857136    2    2   14   14
 0.0714285714285712    3    1    3    1
 -0.04984339561382536    3    1    4    2
 0.008164332296455854    3    1    4    3
 -0.008164332296455863    3    1    5    2
 -0.0498433956138254    3    1    5    3
 0.02753298202897215    3    1    6    4
 0.04234330299770615    3    1    6    5
 0.04234330299770616    3    1    7    4
 -0.02753298202897214    3    1    7    5
 -0.03030861886868471    3    1    8    6
 -0.04040306956700271    3    1    8    7
 -0.04040306956700272    3    1    9    6
 0.03030861886868473    3    1    9    7
 -0.004159372593601477    3    1   10    8
 0.05033607084180142    3    1   10    9
 -0.05033607084180142    3    1   11    8
 -0.004159372593601474    3    1   11    9
 -0.05049881873201001    3    1   12   10
 -0.0009432469638737525    3    1   12   11
 0.000943246963873753    3    1   13   10
 -0.05049881873200993    3    1   13   11
 -0.0004161370260508676    3    1   14   12
 -0.07142735922811413    3    1   14   13
 0.03571428571428563    3    2    3    2
 -0.04984339561382537    3    2    4    1
 -0.008164332296455865    3    2    5    1
 0.02640043823919425    3    2    6    2
 -0.0240525895666167    3    2    6    3
 -0.02405258956661675    3    2    7    2
 -0.02640043823919419    3    2    7    3
 0.002393300614531592    3    2    8    4
 -0.03563400505486453    3    2    8    5
 0.03563400505486453    3    2    9    4
 0.002393300614531598    3    2    9    5
 0.023711354894439    3    2   10    6
 0.02670733706589991    3    2   10    7
 0.02670733706589992    3    2   11    6
 -0.023711354894439    3    2   11    7
 0.03553184322171701    3    2   12    8
 0.0036053184809325    3    2   12    9
 -0.0004161299638699677    3    2   12   12
 -0.003605318480932484    3    2   13    8
 0.03553184322171697    3    2   13    9
 -0.03571186133394337    3    2   13   12
 0.000416129963869975    3    2   13   13
 -0.05050345700614311    3    2   14   10
 -0.0006490289607650533    3    2   14   11
 0.07142857142857119    3    3    1    1
 0.03571428571428563    3    3    2    2
 0.107142857142857    3    3    3    3
 0.008164332296455849    3    3    4    1
 0.07142857142857133    3    3    4    4
 -0.0498433956138254    3    3    5    1
 0.07142857142857151    3    3    5    5
 -0.0240525895666167    3    3    6    2
 -0.02640043823919427    3    3    6    3
 0.07142857142857129    3    3    6    6
 -0.02640043823919419    3    3    7    2
 0.02405258956661673    3    3    7    3
 0.07142857142857126    3    3    7    7
 -0.03563400505486457    3    3    8    4
 -0.002393300614531612    3    3    8    5
 0.07142857142857129    3    3    8    8
 0.002393300614531611    3    3    9    4
 -0.03563400505486458    3    3    9    5
 0.07142857142857134    3    3    9    9
 -0.02670733706589993    3    3   10    6
 0.02371135489443903    3    3   10    7
 0.07142857142857129    3    3   10   10
 0.02371135489443903    3    3   11    6
 0.02670733706589993    3    3   11    7
 0.07142857142857138    3    3   11   11
 0.003605318480932495    3    3   12    8
 -0.03553184322171701    3    3   12    9
 0.03571671009462798    3    3   12   12
 0.03553184322171701    3    3   13    8
 0.003605318480932511    3    3   13    9
 0.0004161299638699501    3    3   13   12
 0.1071404327625148    3    3   13   13
 -0.0006490289607650559    3    3   14   10
 0.05050345700614318    3    3   14   11
 0.07142857142857133    3    3   14   14
 -0.008164332296455882    4    1    2    2
 -0.04984339561382537    4    1    3    2
 0.008164332296455856    4    1    3    3
 0.07142857142857141    4    1    4    1
 -0.04234330299770626    4    1    6    2
 0.02753298202897215    4    1    6    3
 0.02753298202897223    4    1    7    2
 0.04234330299770616    4    1    7    3
 -0.01148610645488356    4    1    8    4
 0.04918424307306501    4    1    8    5
 -0.04918424307306501    4    1    9    4
 -0.01148610645488355    4    1    9    5
 -0.03919725647887838    4    1   10    6
 -0.03185271562508107    4    1   10    7
 -0.03185271562508111    4    1   11    6
 0.03919725647887841    4    1   11    7
 -0.04876459561331619    4    1   12    8
 -0.01315426253474554    4    1   12    9
 -0.007583020828301264    4    1   12   12
 0.01315426253474549    4    1   13    8
 -0.04876459561331611    4    1   13    9
 0.04993513996456617    4    1   13   12
 0.00758302082830123    4    1   13   13
 0.07033501718088463    4    1   14   10
 0.0124509507464767    4    1   14   11
 -0.008164332296455874    4    2    2    1
 -0.04984339561382537    4    2    3    1
 0.07142857142857137    4    2    4    2
 -0.04234330299770626    4    2    6    1
 -0.01437285527293862    4    2    6    4
 -0.03269451384230673    4    2    6    5
 0.02753298202897222    4    2    7    1
 -0.03269451384230678    4    2    7    4
 0.01437285527293861    4    2    7    5
 0.03563400505486458    4    2    8    2
 0.002393300614531593    4    2    8    3
 0.02576767993131281    4    2    8    6
 0.02472927162370635    4    2    8    7
 -0.002393300614531594    4    2    9    2
 0.03563400505486454    4    2    9    3
 0.02472927162370639    4    2    9    6
 -0.0257676799313128    4    2    9    7
 0.01095837485238486    4    2   10    4
 -0.03399153166122777    4    2   10    5
 0.008655887275540284    4    2   10    8
 -0.03464947069660328    4    2   10    9
 0.03399153166122777    4    2   11    4
 0.01095837485238485    4    2   11    5
 0.03464947069660328    4    2   11    8
 0.008655887275540296    4    2   11    9
 0.02200172547030292    4    2   12    6
 -0.02813244177832871    4    2   12    7
 0.07033382353892489    4    2   12   10
 0.01245073944380207    4    2   12   11
 -0.02813244177832869    4    2   13    6
 -0.02200172547030291    4    2   13    7
 -0.0004097660682764572    4    2   13   10
 -7.253822261201826e-05    4    2   13   11
 -0.0488404036984802    4    2   14    8
 -0.01286994074317132    4    2   14    9
 -0.007873810187286879    4    2   14   12
 0.04989011446466962    4    2   14   13
 -0.04984339561382537    4    3    2    1
 0.008164332296455851    4    3    3    1
 0.07142857142857133    4    3    4    3
 0.02753298202897215    4    3    6    1
 0.03269451384230675    4    3    6    4
 -0.01437285527293867    4    3    6    5
 0.04234330299770616    4    3    7    1
 -0.0143728552729386    4    3    7    4
 -0.03269451384230684    4    3    7    5
 0.002393300614531593    4    3    8    2
 -0.03563400505486457    4    3    8    3
 0.02472927162370637    4    3    8    6
 -0.02576767993131278    4    3    8    7
 0.03563400505486454    4    3    9    2
 0.002393300614531611    4    3    9    3
 -0.02576767993131277    4    3    9    6
 -0.02472927162370635    4    3    9    7
 -0.03399153166122773    4    3   10    4
 -0.01095837485238486    4    3   10    5
 0.03464947069660324    4    3   10    8
 0.008655887275540291    4    3   10    9
 0.01095837485238488    4    3   11    4
 -0.03399153166122779    4    3   11    5
 -0.008655887275540305    4    3   11    8
 0.03464947069660332    4    3   11    9
 0.02813244177832869    4    3   12    6
 0.0220017254703029    4    3   12    7
 -0.0004097660682764598    4    3   12   10
 -7.253822261205772e-05    4    3   12   11
 0.02200172547030293    4    3   13    6
 -0.02813244177832872    4    3   13    7
 -0.07033382353892485    4    3   13   10
 -0.01245073944380208    4    3   13   11
 -0.01286994074317132    4    3   14    8
 0.04884040369848023    4    3   14    9
 -0.04989011446466963    4    3   14   12
 -0.007873810187286868    4    3   14   13
 0.0714285714285714    4    4    1    1
 0.07142857142857137    4    4    2    2
 0.07142857142857133    4    4    3    3
 0.107142857142857    4    4    4    4
 0.0357142857142857    4    4    5    5
 -0.01437285527293862    4    4    6    2
 0.03269451384230675    4    4    6    3
 0.07142857142857133    4    4    6    6
 -0.03269451384230678    4    4    7    2
 -0.01437285527293861    4    4    7    3
 0.07142857142857134    4    4    7    7
 -0.01148610645488356    4    4    8    1
 0.07142857142857134    4    4    8    8
 -0.04918424307306501    4    4    9    1
 0.0714285714285714    4    4    9    9
 0.01095837485238486    4    4   10    2
 -0.03399153166122773    4    4   10    3
 0.1049724906999804    4    4   10   10
 0.03399153166122776    4    4   11    2
 0.01095837485238487    4    4   11    3
 0.01226032968540503    4    4   11   10
 0.03788465215716234    4    4   11   11
 0.01689936895359627    4    4   12    4
 -0.03146301849873684    4    4   12    5
 0.01437300039031683    4    4   12    8
 -0.03269445004678295    4    4   12    9
 0.0714285714285714    4    4   12   12
 0.03146301849873685    4    4   13    4
 0.01689936895359628    4    4   13    5
 -0.03269445004678287    4    4   13    8
 -0.01437300039031683    4    4   13    9
 0.0714285714285714    4    4   13   13
 -0.04414950821784816    4    4   14    6
 -0.02453245467305332    4    4   14    7
 0.07142857142857137    4    4   14   14
 0.04984339561382543    5    1    2    2
 -0.008164332296455865    5    1    3    2
 -0.04984339561382541    5    1    3    3
 0.07142857142857137    5    1    5    1
 0.02753298202897217    5    1    6    2
 0.04234330299770616    5    1    6    3
 0.04234330299770623    5    1    7    2
 -0.02753298202897214    5    1    7    3
 0.04918424307306502    5    1    8    4
 0.01148610645488357    5    1    8    5
 -0.01148610645488355    5    1    9    4
 0.04918424307306501    5    1    9    5
 0.0318527156250811    5    1   10    6
 -0.03919725647887842    5    1   10    7
 -0.0391972564788784    5    1   11    6
 -0.03185271562508107    5    1   11    7
 -0.01315426253474555    5    1   12    8
 0.04876459561331621    5    1   12    9
 0.04993513996456619    5    1   12   12
 -0.04876459561331609    5    1   13    8
 -0.0131542625347455    5    1   13    9
 0.007583020828301265    5    1   13   12
 -0.04993513996456617    5    1   13   13
 0.0124509507464767    5    1   14   10
 -0.07033501718088464    5    1   14   11
 0.04984339561382543    5    2    2    1
 -0.008164332296455863    5    2    3    1
 0.07142857142857122    5    2    5    2
 0.02753298202897217    5    2    6    1
 -0.03269451384230673    5    2    6    4
 0.01437285527293855    5    2    6    5
 0.04234330299770623    5    2    7    1
 0.01437285527293861    5    2    7    4
 0.03269451384230668    5    2    7    5
 0.002393300614531616    5    2    8    2
 -0.03563400505486453    5    2    8    3
 -0.02472927162370635    5    2    8    6
 0.02576767993131279    5    2    8    7
 0.03563400505486455    5    2    9    2
 0.002393300614531598    5    2    9    3
 0.02576767993131274    5    2    9    6
 0.02472927162370632    5    2    9    7
 -0.03399153166122776    5    2   10    4
 -0.01095837485238487    5    2   10    5
 -0.03464947069660322    5    2   10    8
 -0.008655887275540286    5    2   10    9
 0.01095837485238485    5    2   11    4
 -0.03399153166122774    5    2   11    5
 0.008655887275540305    5    2   11    8
 -0.03464947069660325    5    2   11    9
 0.02813244177832871    5    2   12    6
 0.02200172547030292    5    2   12    7
 0.01245073944380209    5    2   12   10
 -0.07033382353892484    5    2   12   11
 0.02200172547030291    5    2   13    6
 -0.02813244177832868    5    2   13    7
 -7.253822261208201e-05    5    2   13   10
 0.0004097660682764559    5    2   13   11
 -0.01286994074317132    5    2   14    8
 0.04884040369848022    5    2   14    9
 0.04989011446466957    5    2   14   12
 0.007873810187286886    5    2   14   13
 -0.008164332296455865    5    3    2    1
 -0.0498433956138254    5    3    3    1
 0.07142857142857151    5    3    5    3
 0.04234330299770616    5    3    6    1
 -0.01437285527293868    5    3    6    4
 -0.03269451384230691    5    3    6    5
 -0.02753298202897213    5    3    7    1
 -0.03269451384230684    5    3    7    4
 0.0143728552729387    5    3    7    5
 -0.03563400505486452    5    3    8    2
 -0.002393300614531609    5    3    8    3
 0.02576767993131283    5    3    8    6
 0.02472927162370641    5    3    8    7
 0.002393300614531598    5    3    9    2
 -0.03563400505486457    5    3    9    3
 0.02472927162370644    5    3    9    6
 -0.02576767993131284    5    3    9    7
 -0.01095837485238486    5    3   10    4
 0.03399153166122778    5    3   10    5
 0.008655887275540305    5    3   10    8
 -0.03464947069660337    5    3   10    9
 -0.03399153166122779    5    3   11    4
 -0.01095837485238487    5    3   11    5
 0.03464947069660336    5    3   11    8
 0.008655887275540298    5    3   11    9
 -0.02200172547030291    5    3   12    6
 0.0281324417783287    5    3   12    7
 -7.253822261193889e-05    5    3   12   10
 0.0004097660682764572    5    3   12   11
 0.02813244177832872    5    3   13    6
 0.02200172547030291    5    3   13    7
 -0.01245073944380209    5    3   13   10
 0.07033382353892498    5    3   13   11
 0.04884040369848019    5    3   14    8
 0.01286994074317131    5    3   14    9
 -0.007873810187286879    5    3   14   12
 0.04989011446466976    5    3   14   13
 0.0357142857142857    5    4    5    4
 -0.03269451384230673    5    4    6    2
 -0.01437285527293868    5    4    6    3
 0.01437285527293861    5    4    7    2
 -0.03269451384230684    5    4    7    3
 0.04918424307306501    5    4    8    1
 -0.01148610645488355    5    4    9    1
 -0.03399153166122777    5    4   10    2
 -0.01095837485238486    5    4   10    3
 0.01226032968540502    5    4   10   10
 0.01095837485238485    5    4   11    2
 -0.03399153166122779    5    4   11    3
 -0.03354391927140905    5    4   11   10
 -0.01226032968540503    5    4   11   11
 -0.03146301849873684    5    4   12    4
 -0.01689936895359627    5    4   12    5
 -0.03269445004678284    5    4   12    8
 -0.01437300039031681    5    4   12    9
 0.01689936895359628    5    4   13    4
 -0.03146301849873689    5    4   13    5
 -0.01437300039031685    5    4   13    8
 0.03269445004678301    5    4   13    9
 0.02453245467305336    5    4   14    6
 -0.04414950821784817    5    4   14    7
 0.07142857142857138    5    5    1    1
 0.07142857142857122    5    5    2    2
 0.07142857142857151    5    5    3    3
 0.0357142857142857    5    5    4    4
 0.1071428571428571    5    5    5    5
 0.01437285527293855    5    5    6    2
 -0.03269451384230692    5    5    6    3
 0.07142857142857134    5    5    6    6
 0.03269451384230667    5    5    7    2
 0.0143728552729387    5    5    7    3
 0.07142857142857131    5    5    7    7
 0.01148610645488357    5    5    8    1
 0.07142857142857134    5    5    8    8
 0.04918424307306501    5    5    9    1
 0.07142857142857138    5    5    9    9
 -0.01095837485238487    5    5   10    2
 0.03399153166122779    5    5   10    3
 0.03788465215716234    5    5   10   10
 -0.03399153166122773    5    5   11    2
 -0.01095837485238487    5    5   11    3
 -0.01226032968540503    5    5   11   10
 0.1049724906999805    5    5   11   11
 -0.01689936895359627    5    5   12    4
 0.03146301849873685    5    5   12    5
 -0.01437300039031681    5    5   12    8
 0.03269445004678279    5    5   12    9
 0.07142857142857131    5    5   12   12
 -0.03146301849873689    5    5   13    4
 -0.0168993689535963    5    5   13    5
 0.03269445004678304    5    5   13    8
 0.01437300039031688    5    5   13    9
 0.07142857142857156    5    5   13   13
 0.04414950821784816    5    5   14    6
 0.02453245467305334    5    5   14    7
 0.07142857142857138    5    5   14   14
 -0.04234330299770627    6    1    4    2
 0.02753298202897214    6    1    4    3
 0.02753298202897217    6    1    5    2
 0.04234330299770616    6    1    5    3
 0.07142857142857134    6    1    6    1
 -0.04040306956700283    6    1    8    2
 -0.03030861886868471    6    1    8    3
 0.03030861886868478    6    1    9    2
 -0.04040306956700272    6    1    9    3
 -0.03919725647887839    6    1   10    4
 0.0318527156250811    6    1   10    5
 -0.03185271562508111    6    1   11    4
 -0.0391972564788784    6    1   11    5
 -0.004397559996131595    6    1   12    6
 0.05031582131142937    6    1   12    7
 -0.03709599607665279    6    1   12   10
 -0.03427692347986072    6    1   12   11
 0.05031582131142925    6    1   13    6
 0.004397559996131574    6    1   13    7
 -0.03427692347986065    6    1   13   10
 0.03709599607665271    6    1   13   11
 0.04798405262390227    6    1   14    8
 0.05291097721752167    6    1   14    9
 0.02405258956661675    6    2    2    2
 0.02640043823919424    6    2    3    2
 -0.02405258956661671    6    2    3    3
 -0.04234330299770626    6    2    4    1
 -0.01437285527293862    6    2    4    4
 0.02753298202897217    6    2    5    1
 -0.03269451384230673    6    2    5    4
 0.01437285527293855    6    2    5    5
 0.07142857142857136    6    2    6    2
 -0.04040306956700283    6    2    8    1
 0.0257676799313128    6    2    8    4
 -0.02472927162370635    6    2    8    5
 0.03030861886868478    6    2    9    1
 0.02472927162370639    6    2    9    4
 0.02576767993131274    6    2    9    5
 0.02670733706589996    6    2   10    2
 0.023711354894439    6    2   10    3
 0.03551438176500579    6    2   10    6
 0.003773445631124503    6    2   10    7
 -0.02472308763640293    6    2   10   10
 -0.02371135489443901    6    2   11    2
 0.02670733706589992    6    2   11    3
 0.003773445631124539    6    2   11    6
 -0.03551438176500582    6    2   11    7
 0.02577361328576902    6    2   11   10
 0.02472308763640295    6    2   11   11
 0.02200172547030292    6    2   12    4
 0.02813244177832871    6    2   12    5
 0.04798323829583492    6    2   12    8
 0.05291007927557088    6    2   12    9
 0.02374334843761005    6    2   12   12
 -0.02813244177832869    6    2   13    4
 0.02200172547030291    6    2   13    5
 -0.0002795511733948968    6    2   13    8
 -0.0003082550338664172    6    2   13    9
 -0.02667889819786176    6    2   13   12
 -0.02374334843761003    6    2   13   13
 -0.004690621233406087    6    2   14    6
 0.05028934758582555    6    2   14    7
 -0.03689567196969794    6    2   14   10
 -0.03449246001762857    6    2   14   11
 0.02640043823919424    6    3    2    2
 -0.0240525895666167    6    3    3    2
 -0.02640043823919426    6    3    3    3
 0.02753298202897214    6    3    4    1
 0.03269451384230675    6    3    4    4
 0.04234330299770615    6    3    5    1
 -0.01437285527293868    6    3    5    4
 -0.03269451384230691    6    3    5    5
 0.07142857142857129    6    3    6    3
 -0.03030861886868471    6    3    8    1
 0.02472927162370637    6    3    8    4
 0.02576767993131283    6    3    8    5
 -0.04040306956700273    6    3    9    1
 -0.02576767993131277    6    3    9    4
 0.02472927162370643    6    3    9    5
 0.023711354894439    6    3   10    2
 -0.02670733706589993    6    3   10    3
 0.003773445631124524    6    3   10    6
 -0.03551438176500578    6    3   10    7
 0.02577361328576899    6    3   10   10
 0.02670733706589992    6    3   11    2
 0.02371135489443903    6    3   11    3
 -0.03551438176500579    6    3   11    6
 -0.003773445631124506    6    3   11    7
 0.02472308763640294    6    3   11   10
 -0.02577361328576904    6    3   11   11
 0.02813244177832869    6    3   12    4
 -0.02200172547030291    6    3   12    5
 -0.0002795511733949098    6    3   12    8
 -0.0003082550338664201    6    3   12    9
 0.02667889819786175    6    3   12   12
 0.02200172547030293    6    3   13    4
 0.02813244177832872    6    3   13    5
 -0.04798323829583488    6    3   13    8
 -0.05291007927557085    6    3   13    9
 0.02374334843761004    6    3   13   12
 -0.02667889819786181    6    3   13   13
 -0.05028934758582553    6    3   14    6
 -0.004690621233406071    6    3   14    7
 0.03449246001762855    6    3   14   10
 -0.03689567196969794    6    3   14   11
 -0.04234330299770626    6    4    2    1
 0.02753298202897215    6    4    3    1
 -0.01437285527293862    6    4    4    2
 0.03269451384230675    6    4    4    3
 -0.03269451384230673    6    4    5    2
 -0.01437285527293868    6    4    5    3
 0.07142857142857133    6    4    6    4
 0.0257676799313128    6    4    8    2
 0.02472927162370637    6    4    8    3
 0.01226837861309952    6    4    8    6
 -0.03354097628703243    6    4    8    7
 0.02472927162370639    6    4    9    2
 -0.02576767993131277    6    4    9    3
 -0.03354097628703243    6    4    9    6
 -0.01226837861309952    6    4    9    7
 -0.03919725647887838    6    4   10    1
 0.04724942831994895    6    4   10    8
 0.05210092288312496    6    4   10    9
 -0.03185271562508111    6    4   11    1
 0.008364259061711742    6    4   11    8
 0.009223087597966377    6    4   11    9
 0.02200172547030292    6    4   12    2
 0.02813244177832869    6    4   12    3
 0.03564224116127774    6    4   12    6
 -0.002267344059235432    6    4   12    7
 -0.02002452564876022    6    4   12   10
 0.02957242933246734    6    4   12   11
 -0.02813244177832869    6    4   13    2
 0.02200172547030293    6    4   13    3
 0.002267344059235407    6    4   13    6
 0.0356422411612777    6    4   13    7
 -0.02957242933246731    6    4   13   10
 -0.02002452564876022    6    4   13   11
 -0.04414950821784816    6    4   14    4
 0.02453245467305336    6    4   14    5
 -0.04250298930334655    6    4   14   12
 -0.02728582614550765    6    4   14   13
 0.02753298202897217    6    5    2    1
 0.04234330299770616    6    5    3    1
 -0.03269451384230673    6    5    4    2
 -0.01437285527293868    6    5    4    3
 0.01437285527293855    6    5    5    2
 -0.03269451384230692    6    5    5    3
 0.07142857142857136    6    5    6    5
 -0.02472927162370635    6    5    8    2
 0.02576767993131283    6    5    8    3
 -0.03354097628703242    6    5    8    6
 -0.01226837861309952    6    5    8    7
 0.02576767993131274    6    5    9    2
 0.02472927162370644    6    5    9    3
 -0.01226837861309954    6    5    9    6
 0.03354097628703242    6    5    9    7
 0.0318527156250811    6    5   10    1
 0.00836425906171176    6    5   10    8
 0.009223087597966393    6    5   10    9
 -0.0391972564788784    6    5   11    1
 -0.04724942831994897    6    5   11    8
 -0.05210092288312497    6    5   11    9
 0.02813244177832871    6    5   12    2
 -0.02200172547030292    6    5   12    3
 0.002267344059235429    6    5   12    6
 0.03564224116127766    6    5   12    7
 -0.0295724293324673    6    5   12   10
 -0.02002452564876016    6    5   12   11
 0.02200172547030291    6    5   13    2
 0.02813244177832872    6    5   13    3
 -0.03564224116127779    6    5   13    6
 0.002267344059235428    6    5   13    7
 0.02002452564876025    6    5   13   10
 -0.02957242933246743    6    5   13   11
 0.02453245467305336    6    5   14    4
 0.04414950821784816    6    5   14    5
 0.02728582614550764    6    5   14   12
 -0.04250298930334657    6    5   14   13
 0.07142857142857134    6    6    1    1
 0.07142857142857134    6    6    2    2
 0.07142857142857129    6    6    3    3
 0.07142857142857133    6    6    4    4
 0.07142857142857134    6    6    5    5
 0.1071428571428569    6    6    6    6
 0.03571428571428564    6    6    7    7
 0.01226837861309952    6    6    8    4
 -0.03354097628703241    6    6    8    5
 0.06794885600127359    6    6    8    8
 -0.03354097628703243    6    6    9    4
 -0.01226837861309953    6    6    9    5
 0.03554436361262718    6    6    9    8
 0.07490828685586903    6    6    9    9
 0.03551438176500579    6    6   10    2
 0.003773445631124522    6    6   10    3
 -0.02186155563976808    6    6   10    6
 -0.02824150472426978    6    6   10    7
 0.0714285714285713    6    6   10   10
 0.003773445631124537    6    6   11    2
 -0.0355143817650058    6    6   11    3
 0.02824150472426978    6    6   11    6
 -0.02186155563976809    6    6   11    7
 0.07142857142857134    6    6   11   11
 -0.004397559996131594    6    6   12    1
 0.03564224116127773    6    6   12    4
 0.002267344059235426    6    6   12    5
 0.07142857142857137    6    6   12   12
 0.05031582131142925    6    6   13    1
 0.002267344059235405    6    6   13    4
 -0.03564224116127779    6    6   13    5
 0.07142857142857134    6    6   13   13
 -0.004690621233406089    6    6   14    2
 -0.05028934758582552    6    6   14    3
 0.07142857142857131    6    6   14   14
 0.02753298202897223    7    1    4    2
 0.04234330299770616    7    1    4    3
 0.04234330299770623    7    1    5    2
 -0.02753298202897214    7    1    5    3
 0.07142857142857131    7    1    7    1
 0.03030861886868481    7    1    8    2
 -0.04040306956700271    7    1    8    3
 0.04040306956700281    7    1    9    2
 0.03030861886868473    7    1    9    3
 -0.03185271562508107    7    1   10    4
 -0.03919725647887842    7    1   10    5
 0.03919725647887842    7    1   11    4
 -0.03185271562508107    7    1   11    5
 0.05031582131142937    7    1   12    6
 0.004397559996131567    7    1   12    7
 0.03427692347986074    7    1   12   10
 -0.03709599607665281    7    1   12   11
 0.004397559996131574    7    1   13    6
 -0.05031582131142923    7    1   13    7
 -0.0370959960766527    7    1   13   10
 -0.03427692347986065    7    1   13   11
 -0.05291097721752165    7    1   14    8
 0.04798405262390229    7    1   14    9
 0.02640043823919425    7    2    2    2
 -0.02405258956661675    7    2    3    2
 -0.02640043823919419    7    2    3    3
 0.02753298202897223    7    2    4    1
 -0.03269451384230678    7    2    4    4
 0.04234330299770623    7    2    5    1
 0.01437285527293861    7    2    5    4
 0.03269451384230668    7    2    5    5
 0.07142857142857133    7    2    7    2
 0.03030861886868481    7    2    8    1
 0.02472927162370635    7    2    8    4
 0.0257676799313128    7    2    8    5
 0.04040306956700281    7    2    9    1
 -0.02576767993131279    7    2    9    4
 0.02472927162370631    7    2    9    5
 -0.02371135489443906    7    2   10    2
 0.02670733706589991    7    2   10    3
 0.0037734456311245    7    2   10    6
 -0.03551438176500579    7    2   10    7
 -0.02577361328576899    7    2   10   10
 -0.02670733706589994    7    2   11    2
 -0.023711354894439    7    2   11    3
 -0.03551438176500582    7    2   11    6
 -0.003773445631124464    7    2   11    7
 -0.02472308763640294    7    2   11   10
 0.02577361328576906    7    2   11   11
 -0.02813244177832871    7    2   12    4
 0.02200172547030292    7    2   12    5
 -0.05291007927557088    7    2   12    8
 0.04798323829583492    7    2   12    9
 0.0266788981978618    7    2   12   12
 -0.02200172547030291    7    2   13    4
 -0.02813244177832869    7    2   13    5
 0.0003082550338664343    7    2   13    8
 -0.0002795511733949118    7    2   13    9
 0.02374334843761006    7    2   13   12
 -0.02667889819786173    7    2   13   13