 &FCI NORB=  16,NELEC=10,MS2=2,
  ORBSYM=1,1,1,1,1,1,1,1,1,1,1,1,1,1,1,1
  ISYM=1,
 &END
 0.5163104268441254    1    1    1    1
 0.5415228473262791    1    1    2    2
 -0.003494639058141485    1    1    3    2
 0.5261628007260342    1    1    3    3
 -0.004318657903291199    1    1    4    2
 0.003091039062328675    1    1    4    3
 0.5299705607214862    1    1    4    4
 -0.01028642733201691    1    1    5    2
 0.009065345593799838    1    1    5    3
 -0.00211119238948525    1    1    5    4
 0.2662860936979643    1    1    5    5
 -0.06409334428544253    1    1    6    1
 0.2908502472667725    1    1    6    6
 -0.004497872509367794    1    1    7    1
 -0.01214463136846791    1    1    7    6
 0.5064559784198331    1    1    7    7
 0.02692295332116267    1    1    8    1
 0.06214301133875126    1    1    8    6
 -0.004376089345136551    1    1    8    7
 0.5324322405441704    1    1    8    8
 0.02747976378041597    1    1    9    1
 0.07193733296382947    1    1    9    6
 -0.01076722792438848    1    1    9    7
 -0.04117240027909233    1    1    9    8
 0.5171969811432842    1    1    9    9
 0.03389820273980326    1    1   10    1
 0.09089503677832637    1    1   10    6
 0.03188171343192512    1    1   10    7
 -0.03666719237375042    1    1   10    8
 -0.03747027747134887    1    1   10    9
 0.5173456966232995    1    1   10   10
 0.002438163696847191    1    1   11    1
 0.01559269305975204    1    1   11    6
 -0.001955292805928069    1    1   11    7
 0.009547763612165337    1    1   11    8
 -0.007181020153526473    1    1   11    9
 -0.008831279804700082    1    1   11   10
 0.4848284993804154    1    1   11   11
 0.001573067790830135    1    1   12    2
 0.0002863700940537554    1    1   12    3
 -0.0005925873942887122    1    1   12    4
 0.1447412069183241    1    1   12    5
 0.4207637605046213    1    1   12   12
 0.02770500936954744    1    1   13    2
 0.005747303953187011    1    1   13    3
 0.003874123132777442    1    1   13    4
 -0.03882805998750104    1    1   13    5
 0.0470633060215699    1    1   13   12
 0.5267487708498112    1    1   13   13
 0.004387298127468089    1    1   14    2
 0.0353070337135519    1    1   14    3
 -0.02076498899127943    1    1   14    4
 0.003062451407140702    1    1   14    5
 -0.007774675580360352    1    1   14   12
 0.002529102830877081    1    1   14   13
 0.5279794003742481    1    1   14   14
 0.0005302994066564825    1    1   15    2
 0.0249632451915324    1    1   15    3
 0.03347461157213966    1    1   15    4
 0.02070786863942521    1    1   15    5
 -0.02637021288541565    1    1   15   12
 0.003335272258479202    1    1   15   13
 -0.001913381396127468    1    1   15   14
 0.5318857657995517    1    1   15   15
 0.01382674040568217    1    1   16    1
 -0.09303294259563476    1    1   16    6
 -0.002971862899449297    1    1   16    7
 0.01744827578452148    1    1   16    8
 0.01775451514019001    1    1   16    9
 0.0304431034968171    1    1   16   10
 0.009233603699386733    1    1   16   11
 0.5058999297780955    1    1   16   16
 0.5415228473262791    2    1    2    1
 -0.003494639058141541    2    1    3    1
 -1.082467449009528e-15    2    1    3    2
 -0.004318657903291195    2    1    4    1
 -0.01028642733201692    2    1    5    1
 -1.102383734698318e-15    2    1    5    5
 0.04983985458237391    2    1    6    2
 -0.1038750221001936    2    1    6    3
 -0.06324963679577936    2    1    6    4
 -0.1190115467357976    2    1    6    5
 -0.2283088607329873    2    1    7    2
 -0.05746871424962578    2    1    7    3
 -0.3182752764034978    2    1    7    4
 -0.01297386444654992    2    1    7    5
 0.3916412540396861    2    1    8    2
 0.2326465012966564    2    1    8    3
 -0.2178150893524491    2    1    8    4
 -0.1195967911032197    2    1    8    5
 1.07552855510562e-15    2    1    8    6
 0.1661694098673659    2    1    9    2
 -0.3383481727195164    2    1    9    3
 0.07059203560374241    2    1    9    4
 -0.178092453384594    2    1    9    5
 0.04682107485156313    2    1   10    2
 -0.1642619062456308    2    1   10    3
 -0.1104945113685541    2    1   10    4
 -0.09539700363479602    2    1   10    5
 -0.03267056051095076    2    1   11    2
 -0.02591327066045013    2    1   11    3
 -0.06786972700426921    2    1   11    4
 -0.0974933073369465    2    1   11    5
 0.001573067790830104    2    1   12    1
 -0.2930348139663155    2    1   12    6
 -0.02664270531391312    2    1   12    7
 -0.189394899093919    2    1   12    8
 -0.3113526000933257    2    1   12    9
 -0.1973018505046049    2    1   12   10
 -0.1197744745549695    2    1   12   11
 0.02770500936954741    2    1   13    1
 -0.2481788141809582    2    1   13    6
 0.05609119788286127    2    1   13    7
 0.129859672458757    2    1   13    8
 -0.06113255351644149    2    1   13    9
 -0.2677129582936715    2    1   13   10
 0.1765620682814006    2    1   13   11
 0.004387298127468062    2    1   14    1
 0.04355000547189149    2    1   14    6
 -0.06221519703003489    2    1   14    7
 0.3797869700557762    2    1   14    8
 -0.2813537114400764    2    1   14    9
 0.05763083280694201    2    1   14   10
 0.1111300905546986    2    1   14   11
 0.0005302994066564721    2    1   15    1
 0.05106566483188194    2    1   15    6
 0.08110007705245696    2    1   15    7
 0.158117252017743    2    1   15    8
 0.2104550285276783    2    1   15    9
 -0.1819109042244385    2    1   15   10
 0.07055780482169999    2    1   15   11
 0.009323721530928072    2    1   16    2
 0.003163448624921489    2    1   16    3
 -0.0002681392653324718    2    1   16    4
 0.003938636602451241    2    1   16    5
 0.1593862144913471    2    1   16   12
 0.5001510432027798    2    1   16   13
 0.01533785119575994    2    1   16   14
 -0.03724136031439486    2    1   16   15
 0.541522847326279    2    2    1    1
 0.979471673027651    2    2    2    2
 -1.068589661201713e-15    2    2    3    1
 0.05431852806388514    2    2    3    2
 0.3779594654884887    2    2    3    3
 -0.01027381042490327    2    2    4    2
 -0.04453605431890445    2    2    4    3
 0.3285465060697868    2    2    4    4
 -0.1582809275840404    2    2    5    2
 0.1232751845615842    2    2    5    3
 0.08368141263268261    2    2    5    4
 0.1534620316506578    2    2    5    5
 0.04983985458237392    2    2    6    1
 1.443289932012704e-15    2    2    6    2
 0.3420717740549385    2    2    6    6
 -0.2283088607329873    2    2    7    1
 0.01963412531099268    2    2    7    6
 0.3369338405335734    2    2    7    7
 0.3916412540396861    2    2    8    1
 0.1451373241562159    2    2    8    6
 -0.04705928815652337    2    2    8    7
 0.8803530828125645    2    2    8    8
 0.1661694098673659    2    2    9    1
 0.3129539372673192    2    2    9    6
 0.01396461649544719    2    2    9    7
 -0.02719596847858809    2    2    9    8
 0.7445398574607343    2    2    9    9
 0.04682107485156316    2    2   10    1
 0.2874390194968467    2    2   10    6
 0.0009373369650182324    2    2   10    7
 0.0340193445945771    2    2   10    8
 0.1814026220710278    2    2   10    9
 0.3604345425146215    2    2   10   10
 -0.03267056051095076    2    2   11    1
 0.03620752415681199    2    2   11    6
 0.09232208901449179    2    2   11    7
 0.1948243725046182    2    2   11    8
 0.06081627329946177    2    2   11    9
 -0.01711326183896126    2    2   11   10
 0.1559532548633294    2    2   11   11
 -0.2631333177401534    2    2   12    2
 0.2453784529303906    2    2   12    3
 0.149270043086531    2    2   12    4
 0.2774704338401059    2    2   12    5
 -1.273287031366976e-15    2    2   12    6
 0.5667150051402308    2    2   12   12
 -0.009927938523020846    2    2   13    2
 0.1963908573081831    2    2   13    3
 -0.04030440189163854    2    2   13    4
 0.05857185417932564    2    2   13    5
 0.3174006067966371    2    2   13   12
 0.8072122243196134    2    2   13   13
 0.2125455869498907    2    2   14    2
 0.2968712177889888    2    2   14    3
 -0.170789065282319    2    2   14    4
 -0.03141523931258479    2    2   14    5
 -0.03723145493860037    2    2   14   12
 0.1077343088370511    2    2   14   13
 0.4349414334704145    2    2   14   14
 0.1227524558443643    2    2   15    2
 -0.03872255381488274    2    2   15    3
 -0.07741603841652848    2    2   15    4
 -0.1036099204213586    2    2   15    5
 -0.1767402001765579    2    2   15   12
 0.0812427908800627    2    2   15   13
 -0.01289655391469667    2    2   15   14
 0.2230116608331582    2    2   15   15
 0.009323721530928072    2    2   16    1
 -0.3130313145461059    2    2   16    6
 0.04592548208023339    2    2   16    7
 0.05714411520470326    2    2   16    8
 -0.1671569783257115    2    2   16    9
 -0.2898736997291504    2    2   16   10
 0.13093142343369    2    2   16   11
 0.5095108004339608    2    2   16   16
 -0.003494639058141527    3    1    2    1
 -1.082467449009528e-15    3    1    2    2
 0.5261628007260342    3    1    3    1
 1.158795281952507e-15    3    1    3    3
 0.003091039062328651    3    1    4    1
 0.009065345593799842    3    1    5    1
 -1.18253930952994e-15    3    1    5    3
 -0.1038750221001936    3    1    6    2
 -0.1597965428547509    3    1    6    3
 0.06367739748720956    3    1    6    4
 0.02369789760286018    3    1    6    5
 -0.05746871424962578    3    1    7    2
 0.009141837733171509    3    1    7    3
 -0.007518421818147767    3    1    7    4
 -0.02557718825858897    3    1    7    5
 0.2326465012966563    3    1    8    2
 -0.1006756208200722    3    1    8    3
 -0.05090679284749063    3    1    8    4
 0.08518278445405725    3    1    8    5
 -1.110223024625157e-15    3    1    8    8
 -0.3383481727195164    3    1    9    2
 -0.08377036082253378    3    1    9    3
 -0.2181145778582195    3    1    9    4
 0.05342128188089068    3    1    9    5
 -0.1642619062456309    3    1   10    2
 0.02351226270271246    3    1   10    3
 0.3923142415808638    3    1   10    4
 0.03575850680482343    3    1   10    5
 -0.02591327066045013    3    1   11    2
 0.3809001004183417    3    1   11    3
 -0.04487379878229382    3    1   11    4
 -0.2431772645769222    3    1   11    5
 2.176210600612904e-15    3    1   11   11
 0.0002863700940537346    3    1   12    1
 0.08666277888220016    3    1   12    6
 -0.07086868795270847    3    1   12    7
 0.2390649064620309    3    1   12    8
 0.03760811542841239    3    1   12    9
 -0.001892839124852807    3    1   12   10
 -0.2847009375893617    3    1   12   11
 0.005747303953186997    3    1   13    1
 0.05865426040284324    3    1   13    6
 0.0459029993020075    3    1   13    7
 0.3766316287123706    3    1   13    8
 -0.1197827521042378    3    1   13    9
 -0.02705192309390201    3    1   13   10
 0.2371449605549875    3    1   13   11
 0.03530703371355189    3    1   14    1
 -1.096345236817342e-15    3    1   14    3
 -0.0766825978924378    3    1   14    6
 -0.1959025477732153    3    1   14    7
 0.1843676575983074    3    1   14    8
 0.1607678894987652    3    1   14    9
 -0.04641240824739538    3    1   14   10
 -0.2898516371304782    3    1   14   11
 0.02496324519153239    3    1   15    1
 -0.02923210760506895    3    1   15    6
 0.2968078025728343    3    1   15    7
 0.06381017905376163    3    1   15    8
 -0.05971916293781916    3    1   15    9
 0.2866264778027178    3    1   15   10
 -0.246297411689897    3    1   15   11
 0.003163448624921517    3    1   16    2
 0.02001501434576236    3    1   16    3
 0.0008381428392849541    3    1   16    4
 -5.193652976114986e-05    3    1   16    5
 -0.05134392903174345    3    1   16   12
 0.02093052063708357    3    1   16   13
 0.4342645279640486    3    1   16   14
 0.2911652679351194    3    1   16   15
 -0.003494639058141527    3    2    1    1
 -1.054711873393899e-15    3    2    2    1
 0.05431852806388515    3    2    2    2
 0.3779594654884887    3    2    3    2
 0.009479835873590498    3    2    3    3
 -0.04453605431890444    3    2    4    2
 -0.00877174196201129    3    2    4    3
 -0.0667130256332322    3    2    4    4
 0.1232751845615842    3    2    5    2
 0.004864555221437165    3    2    5    3
 0.009617607889328528    3    2    5    4
 -0.001764251000033724    3    2    5    5
 -0.1038750221001937    3    2    6    1
 -0.07660320367659827    3    2    6    6
 -0.05746871424962577    3    2    7    1
 0.02977902919856038    3    2    7    6
 0.1232515847053928    3    2    7    7
 0.2326465012966563    3    2    8    1
 -0.2456113389069817    3    2    8    6
 -0.03471266458716572    3    2    8    7
 0.2608946395916698    3    2    8    8
 -0.3383481727195163    3    2    9    1
 1.117161918529064e-15    3    2    9    3
 0.03378604664656894    3    2    9    6
 0.2386443580684361    3    2    9    7
 -0.1455298151335988    3    2    9    8
 -0.2051864710462687    3    2    9    9
 -0.1642619062456309    3    2   10    1
 -0.039847166522946    3    2   10    6
 -0.1182397264498802    3    2   10    7
 -0.2242013338529638    3    2   10    8
 0.1008410446497801    3    2   10    9
 -0.1855492223927113    3    2   10   10
 -0.02591327066045013    3    2   11    1
 -0.01384831213374275    3    2   11    6
 0.04396948625242825    3    2   11    7
 0.09676917969771084    3    2   11    8
 0.02709871299829548    3    2   11    9
 -0.02567813127773245    3    2   11   10
 0.08694124487468299    3    2   11   11
 0.2453784529303906    3    2   12    2
 0.08170876913609523    3    2   12    3
 -0.0208121856151405    3    2   12    4
 -0.02894976851071914    3    2   12    5
 -0.09909224286220615    3    2   12   12
 0.1963908573081831    3    2   13    2
 0.1967162897268884    3    2   13    3
 -0.2251103263998894    3    2   13    4
 -0.1024389317712039    3    2   13    5
 1.068589661201713e-15    3    2   13    6
 -0.144682948624441    3    2   13   12
 0.1895175928845968    3    2   13   13
 0.2968712177889888    3    2   14    2
 0.04165057037450062    3    2   14    3
 0.1173877011211069    3    2   14    4
 -0.01033421935187924    3    2   14    5
 0.0970447378084351    3    2   14   12
 0.3561404009698917    3    2   14   13
 0.009767920453015236    3    2   14   14
 -0.03872255381488274    3    2   15    2
 -0.03290386623568596    3    2   15    3
 -0.2315710898535751    3    2   15    4
 -0.00135825287955557    3    2   15    5
 0.04463994019479087    3    2   15   12
 0.1180968525045172    3    2   15   13
 0.02161665466960029    3    2   15   14
 -0.09551435777961652    3    2   15   15
 0.003163448624921524    3    2   16    1
 0.08121824309578582    3    2   16    6
 0.0009737815867022076    3    2   16    7
 0.409016142279909    3    2   16    8
 -0.08101085961966016    3    2   16    9
 -0.04036256746798525    3    2   16   10
 0.1482214451627001    3    2   16   11
 -0.0002539329980262781    3    2   16   16
 0.5261628007260342    3    3    1    1
 0.3779594654884887    3    3    2    2
 1.124100812432971e-15    3    3    3    1
 0.009479835873590511    3    3    3    2
 0.9136200574552154    3    3    3    3
 -0.008771741962011293    3    3    4    2
 0.006029540582905175    3    3    4    3
 0.3797024679123507    3    3    4    4
 -1.168661521722125e-15    3    3    5    1
 0.004864555221437159    3    3    5    2
 -0.2197504514414629    3    3    5    3
 0.0221545692842944    3    3    5    4
 0.1484023495909132    3    3    5    5
 -0.1597965428547509    3    3    6    1
 0.1085346172952355    3    3    6    6
 0.009141837733171516    3    3    7    1
 0.0101818149065012    3    3    7    6
 0.2603001189087732    3    3    7    7
 -0.1006756208200722    3    3    8    1
 0.0403946647930037    3    3    8    6
 -0.05616054366473154    3    3    8    7
 0.5687137222216962    3    3    8    8
 -0.08377036082253382    3    3    9    1
 1.089406342913435e-15    3    3    9    2
 0.04428435317045808    3    3    9    6
 -0.06280769573285509    3    3    9    7
 -0.09822318821505208    3    3    9    8
 0.3966670409022603    3    3    9    9
 0.02351226270271246    3    3   10    1
 0.06258653126396663    3    3   10    6
 0.1646226123701584    3    3   10    7
 -0.09200979802015974    3    3   10    8
 -0.08522457791358745    3    3   10    9
 0.47273022281462    3    3   10   10
 0.3809001004183417    3    3   11    1
 3.094746681142624e-15    3    3   11    3
 -2.152493678089784e-15    3    3   11    5
 -0.09946695124842503    3    3   11    6
 0.05788146122366389    3    3   11    7
 -0.247262638760158    3    3   11    8
 -0.1976387108984147    3    3   11    9
 -0.1515130159210615    3    3   11   10
 1.015886508419715    3    3   11   11
 0.08170876913609525    3    3   12    2
 -0.3119428024571212    3    3   12    3
 0.002059181209179339    3    3   12    4
 0.1956976435723822    3    3   12    5
 -1.038232000372119e-15    3    3   12   11
 0.3094596199378533    3    3   12   12
 0.1967162897268884    3    3   13    2
 0.1103854521800729    3    3   13    3
 -0.0225740084140413    3    3   13    4
 -0.06843852963133185    3    3   13    5
 0.01975470147002304    3    3   13   12
 0.398387754523427    3    3   13   13
 -1.117161918529064e-15    3    3   14    1
 0.04165057037450063    3    3   14    2
 -0.2657693161776807    3    3   14    3
 -0.08420141934149854    3    3   14    4
 0.201344360090755    3    3   14    5
 -1.498801083243961e-15    3    3   14   11
 0.2468640395947606    3    3   14   12
 -0.05196728616880349    3    3   14   13
 0.7377263237089164    3    3   14   14
 -0.03290386623568597    3    3   15    2
 -0.1686750201351181    3    3   15    3
 0.2183906876556345    3    3   15    4
 0.1349123168474508    3    3   15    5
 -1.527857701466573e-15    3    3   15   11
 0.1057870331981388    3    3   15   12
 -0.03463618150705899    3    3   15   13
 0.2726655334901137    3    3   15   14
 0.6060619613828363    3    3   15   15
 0.02001501434576238    3    3   16    1
 -1.609823385706477e-15    3    3   16    3
 -0.07639767540377951    3    3   16    6
 0.008075932808525262    3    3   16    7
 0.1874169565675899    3    3   16    8
 0.09732975337838361    3    3   16    9
 0.1170631245124685    3    3   16   10
 -0.3593206947120331    3    3   16   11
 0.522324968711666    3    3   16   16
 -0.004318657903291195    4    1    2    1
 0.003091039062328675    4    1    3    1
 0.5299705607214862    4    1    4    1
 -0.002111192389485257    4    1    5    1
 -0.06324963679577933    4    1    6    2
 0.06367739748720956    4    1    6    3
 -0.2009412562649084    4    1    6    4
 0.04425560617786495    4    1    6    5
 -0.3182752764034978    4    1    7    2
 -0.007518421818147753    4    1    7    3
 0.1870680749571083    4    1    7    4
 -0.2426721738395393    4    1    7    5
 -0.2178150893524491    4    1    8    2
 -0.05090679284749063    4    1    8    3
 -0.1962816717620421    4    1    8    4
 -0.02271124965910592    4    1    8    5
 0.07059203560374244    4    1    9    2
 -0.2181145778582195    4    1    9    3
 0.02286905482771154    4    1    9    4
 -0.05643254836524932    4    1    9    5
 -0.1104945113685541    4    1   10    2
 0.3923142415808638    4    1   10    3
 0.05781436277975649    4    1   10    4
 0.1096374693350173    4    1   10    5
 -0.0678697270042692    4    1   11    2
 -0.04487379878229379    4    1   11    3
 -0.3204726673187461    4    1   11    4
 0.03019981290451934    4    1   11    5
 -0.0005925873942887331    4    1   12    1
 0.05267899344127182    4    1   12    6
 -0.3569137154008721    4    1   12    7
 -0.03631330279883352    4    1   12    8
 0.03671844015393146    4    1   12    9
 0.03762589391464006    4    1   12   10
 0.02419091046396401    4    1   12   11
 0.003874123132777459    4    1   13    1
 0.00243379281793781    4    1   13    6
 0.2196038849885335    4    1   13    7
 -0.05572468817800424    4    1   13    8
 0.3715228806595393    4    1   13    9
 -0.1851509092461659    4    1   13   10
 0.03750060646059197    4    1   13   11
 -0.02076498899127942    4    1   14    1
 0.02839583226666968    4    1   14    6
 0.3354971488521739    4    1   14    7
 0.05388677431620753    4    1   14    8
 -0.2237079754213044    4    1   14    9
 0.03364086040541737    4    1   14   10
 -0.1272883107530592    4    1   14   11
 0.03347461157213968    4    1   15    1
 -0.003845518479191466    4    1   15    6
 0.08128633063415221    4    1   15    7
 -0.1436116912256618    4    1   15    8
 0.03507090752248913    4    1   15    9
 0.4391269702663803    4    1   15   10
 0.2100955665349641    4    1   15   11
 -0.0002681392653324684    4    1   16    2
 0.0008381428392849662    4    1   16    3
 0.02019599480304159    4    1   16    4
 -0.0005881929851711565    4    1   16    5
 -0.05081786067795575    4    1   16   12
 0.05239446564903598    4    1   16   13
 -0.2905541769604592    4    1   16   14
 0.432883067338953    4    1   16   15
 -0.004318657903291195    4    2    1    1
 -0.01027381042490327    4    2    2    2
 -0.04453605431890445    4    2    3    2
 -0.00877174196201129    4    2    3    3
 0.3285465060697867    4    2    4    2
 -0.06671302563323223    4    2    4    3
 0.02075360959058897    4    2    4    4
 0.0836814126326826    4    2    5    2
 0.009617607889328533    4    2    5    3
 0.1260555206021782    4    2    5    4
 -0.003794503434743245    4    2    5    5
 -0.06324963679577933    4    2    6    1
 -0.03367980159327914    4    2    6    6
 -0.3182752764034978    4    2    7    1
 0.1369513139961108    4    2    7    6
 0.05197365743653154    4    2    7    7
 -0.2178150893524491    4    2    8    1
 0.05009991756753489    4    2    8    6
 0.1822895483615158    4    2    8    7
 -0.09379929258671046    4    2    8    8
 0.07059203560374241    4    2    9    1
 -0.1403021029907851    4    2    9    6
 0.06601625126464598    4    2    9    7
 -0.102999426824931    4    2    9    8
 0.2451307264677862    4    2    9    9
 -0.1104945113685541    4    2   10    1
 -0.0139777483774457    4    2   10    6
 0.01889610275532386    4    2   10    7
 0.1250161755018973    4    2   10    8
 -0.1545503093060663    4    2   10    9
 -0.2201235539150058    4    2   10   10
 -0.06786972700426921    4    2   11    1
 0.01216358401830726    4    2   11    6
 0.2941910354365762    4    2   11    7
 0.03322334453412261    4    2   11    8
 0.09581523330754303    4    2   11    9
 -0.05291633160882422    4    2   11   10
 0.05525012899854131    4    2   11   11
 0.149270043086531    4    2   12    2
 -0.02081218561514051    4    2   12    3
 0.2240422047845721    4    2   12    4
 -0.0170669481779349    4    2   12    5
 -0.05109894103251736    4    2   12   12
 -0.04030440189163853    4    2   13    2
 -0.2251103263998895    4    2   13    3
 -0.05185699085759756    4    2   13    4
 -0.09586789655206222    4    2   13    5
 -0.1409663510348289    4    2   13   12
 0.1322466223852369    4    2   13   13
 -0.170789065282319    4    2   14    2
 0.1173877011211069    4    2   14    3
 -0.2431312440183555    4    2   14    4
 0.06774432649489739    4    2   14    5
 0.01717808289845691    4    2   14   12
 -0.2624459814813377    4    2   14   13
 0.07411265954829444    4    2   14   14
 -0.07741603841652848    4    2   15    2
 -0.2315710898535751    4    2   15    3
 -0.09609335602004014    4    2   15    4
 -0.1036072402964109    4    2   15    5
 -0.06592711953985103    4    2   15   12
 0.2376283968978584    4    2   15   13
 -0.01659406314335962    4    2   15   14
 -0.153173894669946    4    2   15   15
 -0.0002681392653324614    4    2   16    1
 0.01998512763872427    4    2   16    6
 0.1200258194860797    4    2   16    7
 -0.0437743948634269    4    2   16    8
 0.3441493673653465    4    2   16    9
 -0.1853743426402215    4    2   16   10
 0.0277317240211077    4    2   16   11
 -0.0004332069045734806    4    2   16   16
 0.003091039062328667    4    3    1    1
 -0.04453605431890446    4    3    2    2
 -0.00877174196201129    4    3    3    2
 0.006029540582905179    4    3    3    3
 -0.06671302563323225    4    3    4    2
 0.3797024679123507    4    3    4    3
 0.04157870712676903    4    3    4    4
 0.009617607889328533    4    3    5    2
 0.0221545692842944    4    3    5    3
 0.1203170550308279    4    3    5    4
 -0.003145780001617436    4    3    5    5
 0.06367739748720956    4    3    6    1
 -0.02266651287338925    4    3    6    6
 -0.007518421818147753    4    3    7    1
 -0.000680315766211428    4    3    7    6
 0.02443469545797692    4    3    7    7
 -0.05090679284749062    4    3    8    1
 0.02150852661205981    4    3    8    6
 -0.06330019127345486    4    3    8    7
 -0.1153915798941665    4    3    8    8
 -0.2181145778582195    4    3    9    1
 0.1251137911817622    4    3    9    6
 0.125509305763349    4    3    9    7
 0.2547932933420226    4    3    9    8
 -0.1593942519152733    4    3    9    9
 0.3923142415808638    4    3   10    1
 -0.121704782633545    4    3   10    6
 0.2163662856840957    4    3   10    7
 -0.1487267988911467    4    3   10    8
 0.002678380963172301    4    3   10    9
 0.3103199399820938    4    3   10   10
 -0.04487379878229381    4    3   11    1
 0.004377367537083745    4    3   11    6
 0.1909970591018981    4    3   11    7
 0.03923978729259607    4    3   11    8
 0.1201395091357584    4    3   11    9
 -0.09523061914356294    4    3   11   10
 -0.0437112751527621    4    3   11   11
 -0.02081218561514051    4    3   12    2
 0.002059181209179331    4    3   12    3
 0.04291044263877907    4    3   12    4
 0.00847084426660699    4    3   12    5
 0.03323656575406222    4    3   12   12
 -0.2251103263998895    4    3   13    2
 -0.0225740084140413    4    3   13    3
 -0.2904648017220058    4    3   13    4
 -0.01387726304341654    4    3   13    5
 -0.05306840488646264    4    3   13   12
 -0.05869036450673809    4    3   13   13
 0.117387701121107    4    3   14    2
 -0.08420141934149855    4    3   14    3
 0.1002533319845859    4    3   14    4
 0.03468481711174223    4    3   14    5
 0.06643695895633328    4    3   14   12
 0.04242530379755448    4    3   14   13
 -0.3417060166803897    4    3   14   14
 -0.2315710898535751    4    3   15    2
 0.2183906876556345    4    3   15    3
 0.2840556839436619    4    3   15    4
 -0.09742962003433313    4    3   15    5
 -0.2302017519189206    4    3   15   12
 0.003729801313999125    4    3   15   13
 0.1322538094125001    4    3   15   14
 0.3672334020439127    4    3   15   15
 0.0008381428392849645    4    3   16    1
 0.01490085676112817    4    3   16    6
 0.3596265726505362    4    3   16    7
 -0.03047043346894775    4    3   16    8
 -0.1441872983222134    4    3   16    9
 0.2413155196270566    4    3   16   10
 0.01212872227058153    4    3   16   11
 0.00331794533319122    4    3   16   16
 0.5299705607214862    4    4    1    1
 0.3285465060697867    4    4    2    2
 -0.06671302563323223    4    4    3    2
 0.3797024679123507    4    4    3    3
 0.02075360959058895    4    4    4    2
 0.0415787071267691    4    4    4    3
 0.9523726591772789    4    4    4    4
 0.1260555206021782    4    4    5    2
 0.1203170550308279    4    4    5    3
 -0.1124246939706068    4    4    5    4
 0.1574543115812821    4    4    5    5
 -0.2009412562649084    4    4    6    1
 0.1015892781014506    4    4    6    6
 0.1870680749571083    4    4    7    1
 -0.07724274553092667    4    4    7    6
 0.9694765418022858    4    4    7    7
 -0.1962816717620421    4    4    8    1
 0.08809563297488839    4    4    8    6
 0.09703710195097345    4    4    8    7
 0.210157731501046    4    4    8    8
 0.02286905482771152    4    4    9    1
 -0.04789758079359068    4    4    9    6
 0.01417347470137863    4    4    9    7
 -0.07524144269470286    4    4    9    8
 0.4517726212542452    4    4    9    9
 0.05781436277975646    4    4   10    1
 0.05624750260219944    4    4   10    6
 -0.03084998262523178    4    4   10    7
 -0.1094978870785805    4    4   10    8
 -0.2808294620951265    4    4   10    9
 0.7385399377378816    4    4   10   10
 -0.3204726673187461    4    4   11    1
 0.1285504593853655    4    4   11    6
 -0.1426818146062593    4    4   11    7
 0.07501125090840734    4    4   11    8
 0.0971642952065314    4    4   11    9
 0.1200704647407739    4    4   11   10
 0.3501622263483692    4    4   11   11
 0.2240422047845721    4    4   12    2
 0.04291044263877906    4    4   12    3
 -0.1471471449157183    4    4   12    4
 0.1879831195364987    4    4   12    5
 0.2722037723158965    4    4   12   12
 -0.05185699085759759    4    4   13    2
 -0.2904648017220058    4    4   13    3
 0.07232609871602201    4    4   13    4
 -0.186913924374508    4    4   13    5
 -0.1557377158101332    4    4   13   12
 0.4383539003213643    4    4   13   13
 -0.2431312440183555    4    4   14    2
 0.1002533319845859    4    4   14    3
 0.1599362765728079    4    4   14    4
 -0.1406217732451552    4    4   14    5
 -0.2256359106860007    4    4   14   12
 -0.05392112032111171    4    4   14   13
 0.5069716065922725    4    4   14   14
 -0.09609335602004014    4    4   15    2
 0.2840556839436619    4    4   15    3
 -0.009224686684618743    4    4   15    4
 0.07199788360751111    4    4   15    5
 -1.086262156613227e-15    4    4   15    7
 -0.030112403311958    4    4   15   12
 -0.01633054050726841    4    4   15   13
 -0.2565949472321243    4    4   15   14
 0.8357147760297694    4    4   15   15
 0.02019599480304157    4    4   16    1
 -0.01594130844525619    4    4   16    6
 -0.0696359942831586    4    4   16    7
 -0.1409873210157906    4    4   16    8
 0.1863764509418971    4    4   16    9
 0.3119410885821308    4    4   16   10
 0.2534117927269651    4    4   16   11
 0.5196511025332354    4    4   16   16
 -0.0102864273320169    5    1    2    1
 0.009065345593799831    5    1    3    1
 -1.180804586053963e-15    5    1    3    3
 -0.00211119238948525    5    1    4    1