 &FCI NORB=  16,NELEC=10,MS2=2,
  ORBSYM=1,1,1,1,1,1,1,1,1,1,1,1,1,1,1,1
  ISYM=1,
 &END
 0.2292744506959236    1    1    1    1
 0.2369507359814877    1    1    2    2
 -2.57031976801179e-05    1    1    3    2
 0.235907011516119    1    1    3    3
 -0.0008099916884767864    1    1    4    2
 0.001030637912678968    1    1    4    3
 0.2369449860903379    1    1    4    4
 -0.006653776767519339    1    1    5    2
 0.007146631796772473    1    1    5    3
 -0.005777058645084108    1    1    5    4
 0.1812877866782151    1    1    5    5
 -0.01907341009337912    1    1    6    1
 0.1911782067245132    1    1    6    6
 0.000768657944093587    1    1    7    1
 0.0003106138893067314    1    1    7    6
 0.2275022391652555    1    1    7    7
 0.009449136987568843    1    1    8    1
 0.0168239312428821    1    1    8    6
 -0.001459182210387584    1    1    8    7
 0.2228156307912121    1    1    8    8
 0.002155584939956204    1    1    9    1
 0.004113111140734155    1    1    9    6
 -0.0004580489425907196    1    1    9    7
 -0.003277751033034216    1    1    9    8
 0.2461762694627861    1    1    9    9
 0.002606854806323979    1    1   10    1
 0.005900388724222097    1    1   10    6
 -0.0002623088725324149    1    1   10    7
 -0.004814412729618137    1    1   10    8
 -0.001108395311892541    1    1   10    9
 0.2453452636843134    1    1   10   10
 0.01533083145326915    1    1   11    1
 0.02710015581574652    1    1   11    6
 -0.001273425168087803    1    1   11    7
 -0.01295250636614697    1    1   11    8
 -0.002224348520740861    1    1   11    9
 -0.003301829667363112    1    1   11   10
 0.2086964000697021    1    1   11   11
 0.007794976428550706    1    1   12    2
 0.006232900972464438    1    1   12    3
 -3.08175637149001e-06    1    1   12    4
 0.0009662950623751326    1    1   12    5
 0.2370272398818143    1    1   12   12
 -0.001151119559154432    1    1   13    2
 0.0003814557744043282    1    1   13    3
 0.007418024922691953    1    1   13    4
 -0.01321332895472309    1    1   13    5
 0.0008281128302770361    1    1   13   12
 0.2330342100830076    1    1   13   13
 0.00402514214681107    1    1   14    2
 -0.005104989907905646    1    1   14    3
 -0.001599398623884318    1    1   14    4
 -0.009133373803776601    1    1   14    5
 0.0009384226696236928    1    1   14   12
 -0.00310365249723405    1    1   14   13
 0.236825634223279    1    1   14   14
 0.005813242725197102    1    1   15    2
 -0.006020086124636759    1    1   15    3
 0.005197126973594968    1    1   15    4
 0.03725056422836037    1    1   15    5
 -0.001737725447121502    1    1   15   12
 0.01352101154290993    1    1   15   13
 0.00783893071201737    1    1   15   14
 0.2010723955457409    1    1   15   15
 7.405888826993515e-05    1    1   16    1
 -0.02222326031059508    1    1   16    6
 0.0004382185262971087    1    1   16    7
 0.009069750095544128    1    1   16    8
 0.002241747067012949    1    1   16    9
 0.00277707792085069    1    1   16   10
 0.0146684236084111    1    1   16   11
 0.2280615394062947    1    1   16   16
 0.2369507359814877    2    1    2    1
 -2.570319768011812e-05    2    1    3    1
 -0.0008099916884767855    2    1    4    1
 -0.006653776767519343    2    1    5    1
 -0.03878082839580106    2    1    6    2
 -0.09527433014330355    2    1    6    3
 -0.02798254365501666    2    1    6    4
 0.04886625994220551    2    1    6    5
 0.03415732995469295    2    1    7    2
 0.00320082278615237    2    1    7    3
 0.1552563176400783    2    1    7    4
 0.05178956232809563    2    1    7    5
 0.02792469618753287    2    1    8    2
 -0.01269962725728938    2    1    8    3
 -0.06882629536493769    2    1    8    4
 0.108117952454411    2    1    8    5
 0.2487240399193172    2    1    9    2
 0.01962440546499526    2    1    9    3
 -0.02596982095112421    2    1    9    4
 -0.01330474828850036    2    1    9    5
 -0.08276068539873521    2    1   10    2
 -0.001528752963667554    2    1   10    3
 0.01803894733454223    2    1   10    4
 0.02361863896361771    2    1   10    5
 0.04078951794920459    2    1   11    2
 -0.1174066211896349    2    1   11    3
 -0.009018855874852775    2    1   11    4
 -0.0790939180383361    2    1   11    5
 0.007794976428550699    2    1   12    1
 0.0072089041423837    2    1   12    6
 -0.02967581086247036    2    1   12    7
 0.0164461160311026    2    1   12    8
 0.202853126307333    2    1   12    9
 -0.07493197160763619    2    1   12   10
 0.1071815751646687    2    1   12   11
 -0.001151119559154429    2    1   13    1
 0.01806270919738771    2    1   13    6
 -0.1640616644587622    2    1   13    7
 0.02112514477276237    2    1   13    8
 -0.009139997521471099    2    1   13    9
 0.0242168944973281    2    1   13   10
 0.006758914644352474    2    1   13   11
 0.00402514214681107    2    1   14    1
 -0.1116398368464117    2    1   14    6
 -0.004889943544436329    2    1   14    7
 -0.0323824336477935    2    1   14    8
 0.1518929646477854    2    1   14    9
 -0.05381179242342254    2    1   14   10
 -0.05968207140182963    2    1   14   11
 0.005813242725197108    2    1   15    1
 -0.003748904309230651    2    1   15    6
 0.03392890619047554    2    1   15    7
 0.1603765070035268    2    1   15    8
 0.04107569664747911    2    1   15    9
 0.02660419262116578    2    1   15   10
 -0.05266346955348399    2    1   15   11
 0.005037602654317485    2    1   16    2
 -0.001188144439164214    2    1   16    3
 -0.0001049480607428635    2    1   16    4
 -2.928638453514928e-05    2    1   16    5
 0.1807681697983695    2    1   16   12
 0.01809026627888158    2    1   16   13
 0.1490687381312862    2    1   16   14
 0.006934427603084764    2    1   16   15
 0.2369507359814877    2    2    1    1
 0.5351564748225417    2    2    2    2
 0.01515464343412998    2    2    3    2
 0.1025440734030951    2    2    3    3
 -0.0146371605624133    2    2    4    2
 0.01973653521791026    2    2    4    3
 0.1337835752357658    2    2    4    4
 -0.02757246014623648    2    2    5    2
 0.01322922313770083    2    2    5    3
 0.003819872671157129    2    2    5    4
 0.1066374056202242    2    2    5    5
 -0.03878082839580106    2    2    6    1
 0.1169627574753152    2    2    6    6
 0.03415732995469296    2    2    7    1
 -0.02671764151840146    2    2    7    6
 0.2499470649412394    2    2    7    7
 0.02792469618753288    2    2    8    1
 0.04648375039816793    2    2    8    6
 -0.01012570168240756    2    2    8    7
 0.1953087802389922    2    2    8    8
 0.2487240399193172    2    2    9    1
 -0.1104856691877194    2    2    9    6
 0.0003020858466373928    2    2    9    7
 0.04944936184311475    2    2    9    8
 0.522393322631635    2    2    9    9
 -0.0827606853987352    2    2   10    1
 0.03945106332649102    2    2   10    6
 0.002658148195509052    2    2   10    7
 0.01964451317773371    2    2   10    8
 -0.177303655824471    2    2   10    9
 0.07136278028574466    2    2   10   10
 0.04078951794920457    2    2   11    1
 0.059909225654946    2    2   11    6
 -0.04461348552784115    2    2   11    7
 -0.04252062576574516    2    2   11    8
 0.078497093945837    2    2   11    9
 -0.04654350927822182    2    2   11   10
 0.1734248273178608    2    2   11   11
 0.2475475551588438    2    2   12    2
 -0.0442786114495539    2    2   12    3
 -0.05700683540613225    2    2   12    4
 -0.05130611144853098    2    2   12    5
 0.3813269003812965    2    2   12   12
 -0.04260066669408135    2    2   13    2
 -0.01519195559583056    2    2   13    3
 -0.1175755631109753    2    2   13    4
 -0.02235085838579904    2    2   13    5
 0.0252979781638614    2    2   13   12
 0.1260146880479723    2    2   13   13
 0.1757619488086444    2    2   14    2
 0.09015077412082521    2    2   14    3
 0.002057776015414208    2    2   14    4
 -0.03144929864530115    2    2   14    5
 0.2198525343846813    2    2   14   12
 -0.009062064246464694    2    2   14   13
 0.2719954533029478    2    2   14   14
 0.05358049206058303    2    2   15    2
 0.02349779227410087    2    2   15    3
 -0.02457800852293581    2    2   15    4
 0.0986173540054914    2    2   15    5
 0.01340714708232679    2    2   15   12
 -0.01095896805715144    2    2   15   13
 0.01552222909416298    2    2   15   14
 0.1415914291861576    2    2   15   15
 0.005037602654317471    2    2   16    1
 -0.05992740939047349    2    2   16    6
 -0.03789849948025884    2    2   16    7
 -0.002095421431294137    2    2   16    8
 0.2451602753135    2    2   16    9
 -0.08671583039286745    2    2   16   10
 0.04264893090020157    2    2   16   11
 0.2326997311277256    2    2   16   16
 -2.570319768012137e-05    3    1    2    1
 0.235907011516119    3    1    3    1
 0.001030637912678972    3    1    4    1
 0.007146631796772478    3    1    5    1
 -0.09527433014330357    3    1    6    2
 -0.1072755590080823    3    1    6    3
 0.03912509583741111    3    1    6    4
 2.171948133892869e-05    3    1    6    5
 0.003200822786152373    3    1    7    2
 -0.06309622463516344    3    1    7    3
 0.07616934818143371    3    1    7    4
 0.1041072575438482    3    1    7    5
 -0.01269962725728939    3    1    8    2
 0.007444964934951517    3    1    8    3
 0.1332730555297347    3    1    8    4
 -0.04570206513943662    3    1    8    5
 0.01962440546499526    3    1    9    2
 -0.1866949221678859    3    1    9    3
 -0.0331196577853644    3    1    9    4
 -0.02527255579182282    3    1    9    5
 -0.001528752963667551    3    1   10    2
 -0.1291571547884479    3    1   10    3
 -0.09557686866473114    3    1   10    4
 -0.01413163082137528    3    1   10    5
 -0.1174066211896349    3    1   11    2
 0.02537022863523967    3    1   11    3
 -0.00401847125581838    3    1   11    4
 0.1046316747328906    3    1   11    5
 0.006232900972464425    3    1   12    1
 0.04125822444974297    3    1   12    6
 0.0474051356372238    3    1   12    7
 0.08766125383013504    3    1   12    8
 -0.1074489085481145    3    1   12    9
 -0.0877645017612349    3    1   12   10
 0.1241150045620599    3    1   12   11
 0.0003814557744043212    3    1   13    1
 -0.0627537720401292    3    1   13    6
 -0.1068761821606181    3    1   13    7
 -0.06932360044246494    3    1   13    8
 -0.03652766864510534    3    1   13    9
 -0.1100930010938432    3    1   13   10
 -0.00965512566556072    3    1   13   11
 -0.00510498990790563    3    1   14    1
 0.09255710239822752    3    1   14    6
 -0.05490329117840754    3    1   14    7
 -0.06976915260717732    3    1   14    8
 0.1498688729838163    3    1   14    9
 0.100098059658892    3    1   14   10
 0.0354533807591902    3    1   14   11
 -0.006020086124636768    3    1   15    1
 0.0563913205056011    3    1   15    6
 0.09982386453412274    3    1   15    7
 -0.1124257231016141    3    1   15    8
 0.01409674420150594    3    1   15    9
 -0.02966166336848104    3    1   15   10
 0.07080164731154692    3    1   15   11
 -0.001188144439164217    3    1   16    2
 0.004401212934065758    3    1   16    3
 2.687376047068313e-05    3    1   16    4
 0.0004502356010308512    3    1   16    5
 0.1510688347962983    3    1   16   12
 -0.02293542173477286    3    1   16   13
 -0.1767308824811326    3    1   16   14
 -0.02714804963235502    3    1   16   15
 -2.570319768011443e-05    3    2    1    1
 0.01515464343412998    3    2    2    2
 0.1025440734030951    3    2    3    2
 0.01666062658534144    3    2    3    3
 0.01973653521791026    3    2    4    2
 -0.02310160920367049    3    2    4    3
 0.004557000168778557    3    2    4    4
 0.01322922313770084    3    2    5    2
 -0.05165490512724645    3    2    5    3
 0.08167628739685728    3    2    5    4
 -0.03691737793677467    3    2    5    5
 -0.09527433014330357    3    2    6    1
 0.004624107471129122    3    2    6    6
 0.003200822786152373    3    2    7    1
 0.05748524787971194    3    2    7    6
 0.1628635284303134    3    2    7    7
 -0.01269962725728939    3    2    8    1
 0.007971611778959508    3    2    8    6
 0.1016279995051099    3    2    8    7
 -0.1318763160245063    3    2    8    8
 0.01962440546499526    3    2    9    1
 -0.005728558342623643    3    2    9    6
 0.0111517442805447    3    2    9    7
 -0.0118703516980415    3    2    9    8
 0.01721170860532409    3    2    9    9
 -0.001528752963667553    3    2   10    1
 0.003074553361333611    3    2   10    6
 0.01367417446781928    3    2   10    7
 -0.02246146862760839    3    2   10    8
 -0.01258908533208784    3    2   10    9
 -0.0165547212694267    3    2   10   10
 -0.1174066211896349    3    2   11    1
 0.01959107276330625    3    2   11    6
 0.004899937069354066    3    2   11    7
 0.08676972424014101    3    2   11    8
 0.01496070909892743    3    2   11    9
 0.010938257117581    3    2   11   10
 -0.03794119577549213    3    2   11   11
 -0.0442786114495539    3    2   12    2
 -0.09513406107145234    3    2   12    3
 0.001600233904369417    3    2   12    4
 0.01569760188746305    3    2   12    5
 0.1128514116371155    3    2   12   12
 -0.01519195559583055    3    2   13    2
 0.03165833676186231    3    2   13    3
 -0.04827783494310841    3    2   13    4
 -0.07744091842256079    3    2   13    5
 -0.01256322257928122    3    2   13   12
 0.05418083812721511    3    2   13   13
 0.0901507741208252    3    2   14    2
 -0.04019464750513028    3    2   14    3
 -0.03793246528918066    3    2   14    4
 -0.03671883223624239    3    2   14    5
 -0.01924397637406031    3    2   14   12
 0.03190948375345284    3    2   14   13
 -0.08231433878988724    3    2   14   14
 0.02349779227410088    3    2   15    2
 -0.05129204051398868    3    2   15    3
 0.08832190643435743    3    2   15    4
 -0.04352655335665075    3    2   15    5
 0.0145222686406074    3    2   15   12
 -0.08045123694089681    3    2   15   13
 -0.0334365855679783    3    2   15   14
 -0.08417280322591866    3    2   15   15
 -0.001188144439164218    3    2   16    1
 0.08718704520312245    3    2   16    6
 -0.00274863791544251    3    2   16    7
 0.01522686802938767    3    2   16    8
 0.01065596369673568    3    2   16    9
 -0.01229807950879898    3    2   16   10
 0.1208475253678799    3    2   16   11
 0.001698591760338405    3    2   16   16
 0.235907011516119    3    3    1    1
 0.1025440734030951    3    3    2    2
 0.01666062658534143    3    3    3    2
 0.5139171112660722    3    3    3    3
 -0.0231016092036705    3    3    4    2
 0.03840290723204003    3    3    4    3
 0.1501565274612428    3    3    4    4
 -0.05165490512724645    3    3    5    2
 0.01355992602682099    3    3    5    3
 0.0163647051959938    3    3    5    4
 0.1112225402404715    3    3    5    5
 -0.1072755590080823    3    3    6    1
 0.1722925921727031    3    3    6    6
 -0.06309622463516346    3    3    7    1
 0.08311014414484237    3    3    7    6
 0.2085391655157071    3    3    7    7
 0.007444964934951524    3    3    8    1
 0.006262059671844676    3    3    8    6
 0.04057844219931406    3    3    8    7
 0.2155323853834145    3    3    8    8
 -0.1866949221678859    3    3    9    1
 0.1192543962361063    3    3    9    6
 -0.005135883588188455    3    3    9    7
 -0.095561631986532    3    3    9    8
 0.2949367263930404    3    3    9    9
 -0.1291571547884479    3    3   10    1
 0.08561090393170818    3    3   10    6
 -0.005860640434995799    3    3   10    7
 -0.06622129632550365    3    3   10    8
 0.2264389053467058    3    3   10    9
 0.2308959131064156    3    3   10   10
 0.02537022863523967    3    3   11    1
 0.09382381025039561    3    3   11    6
 0.0913489912761675    3    3   11    7
 -0.01081248287331568    3    3   11    8
 -0.06644771042960081    3    3   11    9
 -0.05192047658512157    3    3   11   10
 0.2070516948587071    3    3   11   11
 -0.09513406107145234    3    3   12    2
 0.1120004590873441    3    3   12    3
 0.1198072328222519    3    3   12    4
 0.07764659816150631    3    3   12    5
 0.2926480843501389    3    3   12   12
 0.03165833676186232    3    3   13    2
 0.1434167263363393    3    3   13    3
 -0.03966427749894984    3    3   13    4
 -0.02856336724138157    3    3   13    5
 -0.02550187392994516    3    3   13   12
 0.1472286748514356    3    3   13   13
 -0.04019464750513028    3    3   14    2
 -0.1921929875460993    3    3   14    3
 -0.1013333271718048    3    3   14    4
 -0.01581771057251935    3    3   14    5
 -0.2142540767647292    3    3   14   12
 -0.0295080116799326    3    3   14   13
 0.3376996808053633    3    3   14   14
 -0.05129204051398868    3    3   15    2
 -0.04811581762450684    3    3   15    3
 -0.0128436270403833    3    3   15    4
 0.09820516310607939    3    3   15    5
 0.01584446160447866    3    3   15   12
 -0.01780765533060775    3    3   15   13
 0.05787440823629177    3    3   15   14
 0.1436333076221837    3    3   15   15
 0.004401212934065769    3    3   16    1
 -0.03820056628657977    3    3   16    6
 0.07214395674182152    3    3   16    7
 0.1270225001809475    3    3   16    8
 -0.1749665502729781    3    3   16    9
 -0.1142942482944963    3    3   16   10
 0.04594780997898036    3    3   16   11
 0.2338945110538953    3    3   16   16
 -0.0008099916884767794    4    1    2    1
 0.001030637912678963    4    1    3    1
 0.2369449860903379    4    1    4    1
 -0.005777058645084111    4    1    5    1
 -0.02798254365501666    4    1    6    2
 0.03912509583741112    4    1    6    3
 -0.03408011624938619    4    1    6    4
 -0.05794830947426852    4    1    6    5
 0.1552563176400783    4    1    7    2
 0.0761693481814337    4    1    7    3
 0.03164916148314528    4    1    7    4
 0.04624935611426971    4    1    7    5
 -0.06882629536493767    4    1    8    2
 0.1332730555297347    4    1    8    3
 0.07026436331754415    4    1    8    4
 -0.04048521182586172    4    1    8    5
 -0.0259698209511242    4    1    9    2
 -0.03311965778536441    4    1    9    3
 -0.04168688145905879    4    1    9    4
 0.001994255214329274    4    1    9    5
 0.01803894733454223    4    1   10    2
 -0.09557686866473115    4    1   10    3
 0.2373340784565435    4    1   10    4
 -0.03911856477585457    4    1   10    5
 -0.009018855874852773    4    1   11    2
 -0.004018471255818373    4    1   11    3
 0.00454838704022616    4    1   11    4
 -0.106270583936968    4    1   11    5
 -3.081756371477867e-06    4    1   12    1
 -0.02009683734667512    4    1   12    6
 -0.1587106822684937    4    1   12    7
 -0.007474732566204668    4    1   12    8
 -0.05209330660379585    4    1   12    9
 -0.04990198106456077    4    1   12   10
 0.002662896599217812    4    1   12   11
 0.007418024922691967    4    1   13    1
 -0.02225299609500069    4    1   13    6
 -0.04485481472719548    4    1   13    7
 -0.0515580650553001    4    1   13    8
 -0.05453134003920644    4    1   13    9
 0.2200068515494829    4    1   13   10
 0.1019411846754253    4    1   13   11
 -0.001599398623884317    4    1   14    1
 0.0856523588888569    4    1   14    6
 -0.04300785883136679    4    1   14    7
 0.1147456015356652    4    1   14    8
 0.03856733146357353    4    1   14    9
 0.08596504822441844    4    1   14   10
 -0.003339701028800165    4    1   14   11
 0.00519712697359497    4    1   15    1
 -0.1172807646380445    4    1   15    6
 0.05792484663037301    4    1   15    7
 -0.0498795269741044    4    1   15    8
 -0.006090876063533029    4    1   15    9
 0.09613007078177993    4    1   15   10
 -0.07207414140704048    4    1   15   11
 -0.0001049480607428609    4    1   16    2
 2.687376047068313e-05    4    1   16    3
 0.004421975784322602    4    1   16    4
 -0.0008321582040715925    4    1   16    5
 0.003342630385273674    4    1   16   12
 0.2273861030273978    4    1   16   13
 -0.03550751997590985    4    1   16   14
 0.05208481959907672    4    1   16   15
 -0.000809991688476789    4    2    1    1
 -0.01463716056241331    4    2    2    2
 0.01973653521791026    4    2    3    2
 -0.02310160920367049    4    2    3    3
 0.1337835752357658    4    2    4    2
 0.004557000168778546    4    2    4    3
 0.02535762956426709    4    2    4    4
 0.003819872671157119    4    2    5    2
 0.08167628739685727    4    2    5    3
 0.05179309518558824    4    2    5    4
 0.01410974757120368    4    2    5    5
 -0.02798254365501666    4    2    6    1
 -0.05992550444299533    4    2    6    6
 0.1552563176400783    4    2    7    1
 -0.04152386996955159    4    2    7    6
 0.1187569867653436    4    2    7    7
 -0.06882629536493769    4    2    8    1
 -0.1209816095706606    4    2    8    6
 0.05755631888848569    4    2    8    7
 -0.1112574125035154    4    2    8    8
 -0.0259698209511242    4    2    9    1
 -0.001854214011534817    4    2    9    6
 0.01191931969211374    4    2    9    7
 -0.006080699148778273    4    2    9    8
 -0.04248675211876643    4    2    9    9
 0.01803894733454223    4    2   10    1
 -0.02766947890904954    4    2   10    6
 0.01463581830834766    4    2   10    7
 -0.01015238804874112    4    2   10    8
 0.007465325466304865    4    2   10    9
 0.0365695692207665    4    2   10   10
 -0.00901885587485278    4    2   11    1
 -0.0107608388353709    4    2   11    6
 -0.1073072417943778    4    2   11    7
 -0.09207902990517079    4    2   11    8
 -0.02054595751239197    4    2   11    9
 -0.005578483942055904    4    2   11   10
 0.05942548707178404    4    2   11   11
 -0.05700683540613225    4    2   12    2
 0.001600233904369417    4    2   12    3
 -0.1014979089608896    4    2   12    4
 -0.04762563157194076    4    2   12    5
 -0.004972564188994446    4    2   12   12
 -0.1175755631109753    4    2   13    2
 -0.0482778349431084    4    2   13    3
 0.004699016466253104    4    2   13    4
 -0.04771802457494054    4    2   13    5
 0.1094530253286419    4    2   13   12
 0.07026081591902614    4    2   13   13
 0.002057776015414211    4    2   14    2
 -0.03793246528918066    4    2   14    3
 -0.07133103569086409    4    2   14    4
 0.07044705489391721    4    2   14    5
 -0.005466948100398326    4    2   14   12
 0.05215973833071889    4    2   14   13
 -0.07234901747678228    4    2   14   14
 -0.02457800852293582    4    2   15    2
 0.08832190643435743    4    2   15    3
 0.07832256941833966    4    2   15    4
 -0.00210419567518695    4    2   15    5
 -0.04424203182883247    4    2   15   12
 -0.044090270125926    4    2   15   13
 0.08838780108106302    4    2   15   14
 0.005332158377364078    4    2   15   15
 -0.0001049480607428679    4    2   16    1
 0.03403401028760751    4    2   16    6
 -0.1527021039134785    4    2   16    7
 0.05988196558105146    4    2   16    8
 -0.01927977983656045    4    2   16    9
 0.03531604107654236    4    2   16   10
 0.004925887813764926    4    2   16   11
 -0.0002723823041399466    4    2   16   16
 0.001030637912678966    4    3    1    1
 0.01973653521791025    4    3    2    2
 -0.02310160920367049    4    3    3    2
 0.03840290723204003    4    3    3    3
 0.00455700016877855    4    3    4    2
 0.1501565274612429    4    3    4    3
 -0.03999067617366456    4    3    4    4
 0.08167628739685727    4    3    5    2
 0.0163647051959938    4    3    5    3
 -0.00169928917118582    4    3    5    4
 -0.01997746138636088    4    3    5    5
 0.03912509583741112    4    3    6    1
 -0.00784828407824173    4    3    6    6
 0.07616934818143371    4    3    7    1
 -0.11494330505504    4    3    7    6
 0.03557224679423231    4    3    7    7
 0.1332730555297347    4    3    8    1
 0.02613940867432883    4    3    8    6
 -0.05973551520300307    4    3    8    7
 0.05715315775241883    4    3    8    8
 -0.0331196577853644    4    3    9    1
 0.03655865555678077    4    3    9    6
 -0.001272828012517701    4    3    9    7
 -0.03397153158186524    4    3    9    8
 0.08246589229101083    4    3    9    9
 -0.09557686866473114    4    3   10    1
 0.06300339088411769    4    3   10    6
 -0.003726220327397513    4    3   10    7
 -0.01595276962432141    4    3   10    8
 0.0929663521643473    4    3   10    9
 -0.09682832084636771    4    3   10   10
 -0.004018471255818373    4    3   11    1
 -0.0391843289219524    4    3   11    6
 -0.1244836962585281    4    3   11    7
 0.02884922066194315    4    3   11    8
 -0.009795907652183175    4    3   11    9
 -0.03244223721732489    4    3   11   10
 -0.0713331874337704    4    3   11   11
 0.001600233904369416    4    3   12    2
 0.1198072328222519    4    3   12    3
 -0.03539820567700303    4    3   12    4
 -0.06148321255164854    4    3   12    5
 0.003859543772754791    4    3   12   12
 -0.0482778349431084    4    3   13    2
 -0.03966427749894983    4    3   13    3
 -0.1268783506819179    4    3   13    4
 0.02791062364035775    4    3   13    5
 0.1127631541070945    4    3   13   12
 -0.07472674308695113    4    3   13   13
 -0.03793246528918066    4    3   14    2
 -0.1013333271718048    4    3   14    3
 0.0282796099385323    4    3   14    4
 -0.05307463646666846    4    3   14    5
 -0.02138900317955886    4    3   14   12
 -0.07967540485212643    4    3   14   13
 0.09401624807468924    4    3   14   14
 0.08832190643435743    4    3   15    2
 -0.01284362704038331    4    3   15    3
 -0.06431957007529407    4    3   15    4
 -0.0003441436191781513    4    3   15    5
 -0.06692368811437854    4    3   15   12
 -0.02356436217722593    4    3   15   13
 -0.05912735540697543    4    3   15   14
 -0.02132035365041696    4    3   15   15
 2.687376047068313e-05    4    3   16    1
 -0.06290769544955127    4    3   16    6
 -0.07428449622366252    4    3   16    7
 -0.08087081868852976    4    3   16    8
 -0.05507534376946623    4    3   16    9
 -0.1260643053174128    4    3   16   10
 0.002794036082549899    4    3   16   11
 -0.000212142391960159    4    3   16   16
 0.2369449860903379    4    4    1    1
 0.1337835752357658    4    4    2    2
 0.00455700016877855    4    4    3    2
 0.1501565274612428    4    4    3    3
 0.02535762956426709    4    4    4    2
 -0.03999067617366455    4    4    4    3
 0.5032006513896486    4    4    4    4
 0.05179309518558823    4    4    5    2
 -0.001699289171185819    4    4    5    3
 -0.04197810737576323    4    4    5    4
 0.08857010397912315    4    4    5    5
 -0.03408011624938619    4    4    6    1
 0.1257312553601773    4    4    6    6
 0.03164916148314529    4    4    7    1
 -0.04917317861583272    4    4    7    6
 0.2872310826407102    4    4    7    7
 0.07026436331754415    4    4    8    1
 0.1039224350635174    4    4    8    6
 -0.01864062453684028    4    4    8    7
 0.2059184852257083    4    4    8    8
 -0.0416868814590588    4    4    9    1
 0.02865939239030195    4    4    9    6
 0.004227581905718323    4    4    9    7
 0.01047309312125634    4    4    9    8
 0.04368544577974804    4    4    9    9
 0.2373340784565435    4    4   10    1
 -0.07201850387109136    4    4   10    6
 0.00487306463408581    4    4   10    7
 -0.004734384576589639    4    4   10    8
 -0.05629520840947289    4    4   10    9
 0.5471716379460414    4    4   10   10
 0.00454838704022615    4    4   11    1
 0.05276915833669858    4    4   11    6
 -0.0676050583696193    4    4   11    7
 0.01220069470271568    4    4   11    8
 -0.02222177477275182    4    4   11    9
 0.08310832143324839    4    4   11   10
 0.1178825754816996    4    4   11   11
 -0.1014979089608896    4    4   12    2
 -0.03539820567700303    4    4   12    3
 -0.06112327024250629    4    4   12    4
 -0.01920128224105834    4    4   12    5
 0.1342597498303493    4    4   12   12
 0.00469901646625313    4    4   13    2
 -0.1268783506819179    4    4   13    3
 0.2063383400308046    4    4   13    4
 -0.07730678263396215    4    4   13    5
 0.006145717996417315    4    4   13   12
 0.492104636441719    4    4   13   13
 -0.07133103569086409    4    4   14    2
 0.0282796099385323    4    4   14    3
 0.09290377464116517    4    4   14    4
 -0.06211505807591057    4    4   14    5
 -0.008309825174771704    4    4   14   12
 0.008768139152245481    4    4   14   13
 0.139206615960356    4    4   14   14
 0.07832256941833966    4    4   15    2
 -0.06431957007529408    4    4   15    3
 0.1067486727182039    4    4   15    4
 0.06671401901837533    4    4   15    5
 -0.04643057042206003    4    4   15   12
 0.1139080125366078    4    4   15   13
 -0.05299818736019726    4    4   15   14
 0.1577681397017961    4    4   15   15
 0.004421975784322615    4    4   16    1
 -0.05760789780304246    4    4   16    6
 -0.02710598982920025    4    4   16    7
 -0.07809353869373745    4    4   16    8
 -0.0592696086347697    4    4   16    9
 0.21354815086275    4    4   16   10
 0.08262730842111042    4    4   16   11
 0.2344845314755774    4    4   16   16
 -0.006653776767519348    5    1    2    1
 0.007146631796772482    5    1    3    1
 -0.005777058645084113    5    1    4    1
 0.1812877866782151    5    1    5    1
 0.0488662599422055    5    1    6    2
 2.171948133892695e-05    5    1    6    3
 -0.05794830947426852    5    1    6    4
 0.215787834508251    5    1    6    5
 0.05178956232809563    5    1    7    2
 0.1041072575438482    5    1    7    3
 0.04624935611426971    5    1    7    4
 -0.003664553312525672    5    1    7    5
 0.108117952454411    5    1    8    2
 -0.04570206513943662    5    1    8    3
 -0.04048521182586172    5    1    8    4
 -0.1235243021855129    5    1    8    5
 -0.01330474828850036    5    1    9    2
 -0.02527255579182282    5    1    9    3
 0.001994255214329275    5    1    9    4
 -0.02320508596838399    5    1    9    5
 0.02361863896361771    5    1   10    2
 -0.01413163082137528    5    1   10    3
 -0.03911856477585456    5    1   10    4
 -0.03090275200398726    5    1   10    5
 -0.07909391803833611    5    1   11    2
 0.1046316747328906    5    1   11    3