 &FCI NORB=  14,NELEC= 8,MS2=2,
  ORBSYM=1,1,1,1,1,1,1,1,1,1,1,1,1,1
  ISYM=1,
 &END
 0.1191500385714283    1    1    1    1
 -1.360023205165817e-15    1    1    2    1
 0.1191500385714286    1    1    2    2
 0.1191500385714283    1    1    3    3
 0.1191500385714286    1    1    4    4
 0.1191500385714285    1    1    5    5
 0.1191500385714283    1    1    6    6
 0.1191500385714283    1    1    7    7
 0.1191500385714283    1    1    8    8
 0.1191500385714284    1    1    9    9
 1.020884765612351e-15    1    1   10    9
 0.1191500385714284    1    1   10   10
 0.1191500385714285    1    1   11   11
 0.1191500385714286    1    1   12   12
 1.013078509970455e-15    1    1   13   11
 0.1191500385714283    1    1   13   13
 1.337471799978118e-15    1    1   14   12
 0.1191500385714284    1    1   14   14
 -1.370431546021678e-15    2    1    1    1
 0.1191500385714286    2    1    2    1
 -0.01137112123932723    2    1    4    2
 0.08348091666690642    2    1    4    3
 0.08348091666690649    2    1    5    2
 0.01137112123932716    2    1    5    3
 -0.02239714853892996    2    1    6    4
 -0.0812202781521435    2    1    6    5
 -0.08122027815214353    2    1    7    4
 0.02239714853892994    2    1    7    5
 0.05567691518753923    2    1    8    6
 0.06323327415993898    2    1    8    7
 0.06323327415993898    2    1    9    6
 -0.05567691518753923    2    1    9    7
 -0.02746196950826713    2    1   10    8
 -0.07965052464681863    2    1   10    9
 -0.07965052464681865    2    1   11    8
 0.02746196950826712    2    1   11    9
 0.08425144872818216    2    1   12   10
 0.0002433782837393643    2    1   12   11
 0.0002433782837393313    2    1   13   10
 -0.0842514487281818    2    1   13   11
 -0.1191495364200838    2    1   14   12
 0.0003459226098465672    2    1   14   13
 0.1191500385714286    2    2    1    1
 0.1787250578571428    2    2    2    2
 0.05957501928571424    2    2    3    3
 -0.01137112123932724    2    2    4    1
 0.1191500385714287    2    2    4    4
 0.08348091666690649    2    2    5    1
 0.1191500385714285    2    2    5    5
 -0.05476844706784243    2    2    6    2
 -0.02344355196360341    2    2    6    3
 0.1191500385714284    2    2    6    6
 0.0234435519636035    2    2    7    2
 -0.05476844706784237    2    2    7    3
 0.1191500385714284    2    2    7    7
 -0.05356967007240475    2    2    8    4
 -0.02606671001923597    2    2    8    5
 0.1191500385714285    2    2    8    8
 0.02606671001923599    2    2    9    4
 -0.05356967007240475    2    2    9    5
 0.1191500385714285    2    2    9    9
 -0.0551033074591402    2    2   10    6
 0.02264527389891077    2    2   10    7
 0.1191500385714288    2    2   10   10
 -0.02264527389891081    2    2   11    6
 -0.05510330745914023    2    2   11    7
 0.1191500385714285    2    2   11   11
 -0.01958115961993161    2    2   12    8
 -0.05626509673707141    2    2   12    9
 0.1787240535565699    2    2   12   12
 0.05626509673707126    2    2   13    8
 -0.01958115961993153    2    2   13    9
 -0.0003459211519745622    2    2   13   12
 0.05957602358628714    2    2   13   13
 -0.08425038706650836    2    2   14   10
 -0.0004879804606593742    2    2   14   11
 0.1191500385714283    2    2   14   14
 0.1191500385714283    3    1    3    1
 0.08348091666690642    3    1    4    2
 0.01137112123932717    3    1    4    3
 0.01137112123932716    3    1    5    2
 -0.08348091666690637    3    1    5    3
 0.08122027815214344    3    1    6    4
 -0.02239714853892992    3    1    6    5
 -0.02239714853892992    3    1    7    4
 -0.08122027815214344    3    1    7    5
 0.06323327415993894    3    1    8    6
 -0.0556769151875392    3    1    8    7
 -0.05567691518753918    3    1    9    6
 -0.0632332741599389    3    1    9    7
 0.07965052464681849    3    1   10    8
 -0.02746196950826707    3    1   10    9
 -0.02746196950826707    3    1   11    8
 -0.07965052464681856    3    1   11    9
 0.0002433782837393227    3    1   12   10
 -0.08425144872818185    3    1   12   11
 -0.08425144872818155    3    1   13   10
 -0.000243378283739379    3    1   13   11
 -0.0003459226098464592    3    1   14   12
 -0.1191495364200839    3    1   14   13
 0.05957501928571425    3    2    3    2
 0.08348091666690642    3    2    4    1
 0.01137112123932716    3    2    5    1
 -0.02344355196360341    3    2    6    2
 0.05476844706784234    3    2    6    3
 -0.05476844706784236    3    2    7    2
 -0.02344355196360339    3    2    7    3
 0.02606671001923597    3    2    8    4
 -0.05356967007240469    3    2    8    5
 0.05356967007240465    3    2    9    4
 0.02606671001923597    3    2    9    5
 0.0226452738989108    3    2   10    6
 0.05510330745914017    3    2   10    7
 -0.05510330745914016    3    2   11    6
 0.02264527389891082    3    2   11    7
 0.05626509673707132    3    2   12    8
 -0.01958115961993154    3    2   12    9
 0.0003459211519744858    3    2   12   12
 0.0195811596199315    3    2   13    8
 0.05626509673707122    3    2   13    9
 0.0595740149851413    3    2   13   12
 -0.000345921151974527    3    2   13   13
 -0.0004879804606593031    3    2   14   10
 0.08425038706650831    3    2   14   11
 0.1191500385714283    3    3    1    1
 0.05957501928571424    3    3    2    2
 0.1787250578571428    3    3    3    3
 0.01137112123932718    3    3    4    1
 0.1191500385714287    3    3    4    4
 -0.08348091666690637    3    3    5    1
 0.1191500385714287    3    3    5    5
 0.05476844706784234    3    3    6    2
 0.02344355196360341    3    3    6    3
 0.1191500385714285    3    3    6    6
 -0.02344355196360339    3    3    7    2
 0.05476844706784235    3    3    7    3
 0.1191500385714285    3    3    7    7
 0.0535696700724047    3    3    8    4
 0.02606671001923599    3    3    8    5
 0.1191500385714285    3    3    8    8
 -0.02606671001923596    3    3    9    4
 0.0535696700724047    3    3    9    5
 0.1191500385714285    3    3    9    9
 0.05510330745914017    3    3   10    6
 -0.02264527389891082    3    3   10    7
 0.1191500385714283    3    3   10   10
 0.02264527389891079    3    3   11    6
 0.05510330745914017    3    3   11    7
 0.1191500385714287    3    3   11   11
 0.01958115961993151    3    3   12    8
 0.05626509673707123    3    3   12    9
 0.05957602358628721    3    3   12   12
 -0.05626509673707118    3    3   13    8
 0.01958115961993152    3    3   13    9
 0.0003459211519745297    3    3   13   12
 0.1787240535565699    3    3   13   13
 0.08425038706650824    3    3   14   10
 0.0004879804606593022    3    3   14   11
 0.1191500385714288    3    3   14   14
 -0.01137112123932724    4    1    2    2
 0.08348091666690644    4    1    3    2
 0.01137112123932718    4    1    3    3
 0.1191500385714286    4    1    4    1
 -0.02239714853892996    4    1    6    2
 0.08122027815214344    4    1    6    3
 -0.08122027815214353    4    1    7    2
 -0.02239714853892992    4    1    7    3
 0.04675147559219008    4    1    8    4
 -0.0700904085859065    4    1    8    5
 0.07009040858590644    4    1    9    4
 0.04675147559219009    4    1    9    5
 0.04224983295412242    4    1   10    6
 0.07289250620698402    4    1   10    7
 -0.072892506206984    4    1   11    6
 0.04224983295412242    4    1   11    7
 0.08258027695154202    4    1   12    8
 -0.01669921268782115    4    1   12    9
 -0.01088619928325816    4    1   12   12
 0.0166992126878211    4    1   13    8
 0.08258027695154184    4    1   13    9
 0.0835455355536826    4    1   13   12
 0.0108861992832581    4    1   13   13
 0.0153971298812838    4    1   14   10
 0.1181510054252261    4    1   14   11
 -0.01137112123932724    4    2    2    1
 0.08348091666690644    4    2    3    1
 0.1191500385714287    4    2    4    2
 -0.02239714853892996    4    2    6    1
 0.05904340483545929    4    2    6    4
 -0.007940986609312965    4    2    6    5
 -0.08122027815214353    4    2    7    1
 -0.007940986609312918    4    2    7    4
 -0.0590434048354593    4    2    7    5
 -0.05356967007240476    4    2    8    2
 0.02606671001923597    4    2    8    3
 0.0389900229457943    4    2    8    6
 -0.04504398998290073    4    2    8    7
 0.02606671001923599    4    2    9    2
 0.05356967007240466    4    2    9    3
 -0.04504398998290073    4    2    9    6
 -0.03899002294579422    4    2    9    7
 -0.05763007294068249    4    2   10    4
 -0.01509826532237573    4    2   10    5
 0.05842694034120955    4    2   10    8
 -0.01163939711746211    4    2   10    9
 -0.01509826532237573    4    2   11    4
 0.05763007294068248    4    2   11    5
 -0.01163939711746206    4    2   11    8
 -0.05842694034120936    4    2   11    9
 0.02972612702703482    4    2   12    6
 0.05162887074947341    4    2   12    7
 -0.015397064990919    4    2   12   10
 -0.1181505074842522    4    2   12   11
 0.05162887074947324    4    2   13    6
 -0.02972612702703476    4    2   13    7
 4.47017509734712e-05    4    2   13   10
 0.0003430221646817371    4    2   13   11
 -0.08253144689573814    4    2   14    8
 0.01693889367941144    4    2   14    9
 0.0111287071626226    4    2   14   12
 -0.08351357807371833    4    2   14   13
 0.08348091666690644    4    3    2    1
 0.01137112123932717    4    3    3    1
 0.1191500385714287    4    3    4    3
 0.08122027815214344    4    3    6    1
 -0.007940986609312937    4    3    6    4
 -0.05904340483545941    4    3    6    5
 -0.02239714853892992    4    3    7    1
 -0.05904340483545936    4    3    7    4
 0.007940986609312995    4    3    7    5
 0.02606671001923597    4    3    8    2
 0.0535696700724047    4    3    8    3
 0.04504398998290075    4    3    8    6
 0.03899002294579429    4    3    8    7
 0.05356967007240465    4    3    9    2
 -0.02606671001923596    4    3    9    3
 0.03899002294579426    4    3    9    6
 -0.04504398998290075    4    3    9    7
 0.01509826532237574    4    3   10    4
 -0.05763007294068247    4    3   10    5
 -0.01163939711746206    4    3   10    8
 -0.05842694034120931    4    3   10    9
 -0.05763007294068238    4    3   11    4
 -0.01509826532237573    4    3   11    5
 -0.05842694034120956    4    3   11    8
 0.01163939711746207    4    3   11    9
 0.0516288707494733    4    3   12    6
 -0.0297261270270348    4    3   12    7
 -4.470175097311731e-05    4    3   12   10
 -0.0003430221646817441    4    3   12   11
 -0.02972612702703477    4    3   13    6
 -0.05162887074947325    4    3   13    7
 -0.01539706499091897    4    3   13   10
 -0.1181505074842523    4    3   13   11
 -0.0169388936794114    4    3   14    8
 -0.08253144689573826    4    3   14    9
 -0.0835135780737184    4    3   14   12
 -0.01112870716262251    4    3   14   13
 0.1191500385714286    4    4    1    1
 0.1191500385714287    4    4    2    2
 0.1191500385714287    4    4    3    3
 0.1787250578571432    4    4    4    4
 0.05957501928571441    4    4    5    5
 0.05904340483545928    4    4    6    2
 -0.007940986609312931    4    4    6    3
 0.1191500385714286    4    4    6    6
 -0.007940986609312917    4    4    7    2
 -0.05904340483545936    4    4    7    3
 0.1191500385714286    4    4    7    7
 0.04675147559219008    4    4    8    1
 0.1191500385714287    4    4    8    8
 0.07009040858590644    4    4    9    1
 0.1191500385714286    4    4    9    9
 -0.05763007294068248    4    4   10    2
 0.01509826532237574    4    4   10    3
 0.06156470901996487    4    4   10   10
 -0.01509826532237574    4    4   11    2
 -0.0576300729406824    4    4   11    3
 0.01526803010681279    4    4   11   10
 0.1767353681228926    4    4   11   11
 0.02257905405822585    4    4   12    4
 -0.05513047470074023    4    4   12    5
 0.004164155727656705    4    4   12    8
 0.05942930867820224    4    4   12    9
 0.1191500385714287    4    4   12   12
 0.05513047470074005    4    4   13    4
 0.02257905405822581    4    4   13    5
 0.05942930867820242    4    4   13    8
 -0.00416415572765675    4    4   13    9
 0.1191500385714286    4    4   13   13
 -0.06682160430933941    4    4   14    6
 0.0513150956669919    4    4   14    7
 0.1191500385714287    4    4   14   14
 0.08348091666690649    5    1    2    2
 0.01137112123932716    5    1    3    2
 -0.08348091666690638    5    1    3    3
 0.1191500385714285    5    1    5    1
 -0.08122027815214349    5    1    6    2
 -0.02239714853892993    5    1    6    3
 0.02239714853892995    5    1    7    2
 -0.08122027815214346    5    1    7    3
 -0.07009040858590651    5    1    8    4
 -0.04675147559219008    5    1    8    5
 0.04675147559219009    5    1    9    4
 -0.07009040858590648    5    1    9    5
 -0.07289250620698398    5    1   10    6
 0.04224983295412239    5    1   10    7
 -0.04224983295412241    5    1   11    6
 -0.07289250620698401    5    1   11    7
 -0.01669921268782113    5    1   12    8
 -0.08258027695154199    5    1   12    9
 0.08354553555368263    5    1   12   12
 0.08258027695154183    5    1   13    8
 -0.0166992126878211    5    1   13    9
 0.0108861992832581    5    1   13   12
 -0.08354553555368263    5    1   13   13
 -0.118151005425226    5    1   14   10
 0.01539712988128379    5    1   14   11
 0.08348091666690646    5    2    2    1
 0.01137112123932716    5    2    3    1
 0.1191500385714285    5    2    5    2
 -0.08122027815214349    5    2    6    1
 -0.007940986609312964    5    2    6    4
 -0.0590434048354592    5    2    6    5
 0.02239714853892995    5    2    7    1
 -0.0590434048354593    5    2    7    4
 0.007940986609312898    5    2    7    5
 -0.02606671001923597    5    2    8    2
 -0.05356967007240469    5    2    8    3
 0.0450439899829007    5    2    8    6
 0.03899002294579421    5    2    8    7
 -0.05356967007240475    5    2    9    2
 0.02606671001923597    5    2    9    3
 0.03899002294579427    5    2    9    6
 -0.04504398998290068    5    2    9    7
 -0.01509826532237573    5    2   10    4
 0.05763007294068241    5    2   10    5
 -0.01163939711746208    5    2   10    8
 -0.05842694034120952    5    2   10    9
 0.05763007294068247    5    2   11    4
 0.01509826532237573    5    2   11    5
 -0.05842694034120934    5    2   11    8
 0.01163939711746207    5    2   11    9
 -0.05162887074947331    5    2   12    6
 0.02972612702703476    5    2   12    7
 0.1181505074842522    5    2   12   10
 -0.01539706499091897    5    2   12   11
 0.02972612702703476    5    2   13    6
 0.05162887074947328    5    2   13    7
 -0.0003430221646817163    5    2   13   10
 4.470175097335844e-05    5    2   13   11
 0.01693889367941141    5    2   14    8
 0.08253144689573812    5    2   14    9
 -0.08351357807371813    5    2   14   12
 -0.01112870716262253    5    2   14   13
 0.01137112123932716    5    3    2    1
 -0.08348091666690637    5    3    3    1
 0.1191500385714287    5    3    5    3
 -0.02239714853892993    5    3    6    1
 -0.0590434048354594    5    3    6    4
 0.007940986609312955    5    3    6    5
 -0.08122027815214343    5    3    7    1
 0.007940986609312995    5    3    7    4
 0.05904340483545942    5    3    7    5
 -0.05356967007240469    5    3    8    2
 0.02606671001923599    5    3    8    3
 -0.0389900229457943    5    3    8    6
 0.0450439899829008    5    3    8    7
 0.02606671001923597    5    3    9    2
 0.05356967007240471    5    3    9    3
 0.04504398998290075    5    3    9    6
 0.03899002294579432    5    3    9    7
 -0.05763007294068247    5    3   10    4
 -0.01509826532237574    5    3   10    5
 -0.05842694034120925    5    3   10    8
 0.01163939711746204    5    3   10    9
 -0.01509826532237573    5    3   11    4
 0.05763007294068247    5    3   11    5
 0.01163939711746207    5    3   11    8
 0.05842694034120954    5    3   11    9
 0.02972612702703478    5    3   12    6
 0.0516288707494733    5    3   12    7
 0.0003430221646817519    5    3   12   10
 -4.470175097326824e-05    5    3   12   11
 0.0516288707494733    5    3   13    6
 -0.02972612702703481    5    3   13    7
 0.1181505074842521    5    3   13   10
 -0.01539706499091894    5    3   13   11
 -0.08253144689573821    5    3   14    8
 0.01693889367941138    5    3   14    9
 -0.01112870716262253    5    3   14   12
 0.08351357807371862    5    3   14   13
 0.05957501928571441    5    4    5    4
 -0.007940986609312964    5    4    6    2
 -0.05904340483545941    5    4    6    3
 -0.0590434048354593    5    4    7    2
 0.00794098660931299    5    4    7    3
 -0.07009040858590651    5    4    8    1
 0.04675147559219009    5    4    9    1
 -0.01509826532237573    5    4   10    2
 -0.05763007294068247    5    4   10    3
 -0.01526803010681276    5    4   10   10
 0.05763007294068249    5    4   11    2
 -0.01509826532237573    5    4   11    3
 -0.05758532955146385    5    4   11   10
 0.01526803010681277    5    4   11   11
 -0.05513047470074024    5    4   12    4
 -0.02257905405822583    5    4   12    5
 0.05942930867820227    5    4   12    8
 -0.00416415572765674    5    4   12    9
 0.02257905405822581    5    4   13    4
 -0.05513047470074018    5    4   13    5
 -0.004164155727656754    5    4   13    8
 -0.05942930867820242    5    4   13    9
 -0.05131509566699192    5    4   14    6
 -0.06682160430933942    5    4   14    7
 0.1191500385714285    5    5    1    1
 0.1191500385714285    5    5    2    2
 0.1191500385714287    5    5    3    3
 0.05957501928571441    5    5    4    4
 0.178725057857143    5    5    5    5
 -0.0590434048354592    5    5    6    2
 0.007940986609312951    5    5    6    3
 0.1191500385714285    5    5    6    6
 0.007940986609312898    5    5    7    2
 0.05904340483545943    5    5    7    3
 0.1191500385714285    5    5    7    7
 -0.04675147559219008    5    5    8    1
 0.1191500385714285    5    5    8    8
 -0.07009040858590648    5    5    9    1
 0.1191500385714287    5    5    9    9
 0.05763007294068242    5    5   10    2
 -0.01509826532237573    5    5   10    3
 0.1767353681228924    5    5   10   10
 0.01509826532237573    5    5   11    2
 0.05763007294068246    5    5   11    3
 -0.01526803010681276    5    5   11   10
 0.06156470901996485    5    5   11   11
 -0.02257905405822583    5    5   12    4
 0.05513047470074011    5    5   12    5
 -0.004164155727656717    5    5   12    8
 -0.05942930867820224    5    5   12    9
 0.1191500385714285    5    5   12   12
 -0.05513047470074018    5    5   13    4
 -0.02257905405822584    5    5   13    5
 -0.05942930867820242    5    5   13    8
 0.004164155727656732    5    5   13    9
 0.1191500385714288    5    5   13   13
 0.06682160430933938    5    5   14    6
 -0.05131509566699191    5    5   14    7
 0.1191500385714286    5    5   14   14
 -0.02239714853892996    6    1    4    2
 0.08122027815214343    6    1    4    3
 -0.08122027815214349    6    1    5    2
 -0.02239714853892992    6    1    5    3
 0.1191500385714283    6    1    6    1
 0.05567691518753923    6    1    8    2
 0.06323327415993894    6    1    8    3
 0.06323327415993898    6    1    9    2
 -0.05567691518753918    6    1    9    3
 0.04224983295412241    6    1   10    4
 -0.07289250620698397    6    1   10    5
 -0.072892506206984    6    1   11    4
 -0.04224983295412241    6    1   11    5
 0.05921157563582301    6    1   12    6
 -0.05993625911340855    6    1   12    7
 -0.07773963188012173    6    1   12   10
 0.03247946244828578    6    1   12   11
 -0.05993625911340848    6    1   13    6
 -0.05921157563582295    6    1   13    7
 -0.03247946244828576    6    1   13   10
 -0.0777396318801217    6    1   13   11
 0.007934322551509826    6    1   14    8
 -0.1188855677415113    6    1   14    9
 -0.05476844706784244    6    2    2    2
 -0.02344355196360341    6    2    3    2
 0.05476844706784234    6    2    3    3
 -0.02239714853892996    6    2    4    1
 0.05904340483545929    6    2    4    4
 -0.0812202781521435    6    2    5    1
 -0.007940986609312965    6    2    5    4
 -0.05904340483545921    6    2    5    5
 0.1191500385714284    6    2    6    2
 0.05567691518753923    6    2    8    1
 0.03899002294579429    6    2    8    4
 0.04504398998290071    6    2    8    5
 0.06323327415993898    6    2    9    1
 -0.04504398998290073    6    2    9    4
 0.03899002294579426    6    2    9    5
 -0.05510330745914019    6    2   10    2
 0.0226452738989108    6    2   10    3
 0.04174630494926582    6    2   10    6
 -0.04250210519463875    6    2   10    7
 -0.05503633472507953    6    2   10   10
 -0.02264527389891081    6    2   11    2
 -0.05510330745914016    6    2   11    3
 0.04250210519463865    6    2   11    6
 0.04174630494926569    6    2   11    7
 0.02280755977570284    6    2   11   10
 0.05503633472507931    6    2   11   11
 0.02972612702703482    6    2   12    4
 -0.0516288707494733    6    2   12    5
 -0.007934289112739823    6    2   12    8
 0.1188850667047646    6    2   12    9
 -0.05490364830848701    6    2   12   12
 0.05162887074947324    6    2   13    4
 0.02972612702703476    6    2   13    5
 2.303533928561981e-05    6    2   13    8
 -0.0003451547843316329    6    2   13    9
 -0.02312514487113972    6    2   13   12
 0.05490364830848693    6    2   13   13
 -0.05938533616710654    6    2   14    6
 0.05976410037895806    6    2   14    7
 0.07764500818035303    6    2   14   10
 -0.0327050233214921    6    2   14   11
 -0.02344355196360341    6    3    2    2
 0.05476844706784234    6    3    3    2
 0.0234435519636034    6    3    3    3
 0.08122027815214343    6    3    4    1
 -0.007940986609312936    6    3    4    4
 -0.02239714853892992    6    3    5    1
 -0.0590434048354594    6    3    5    4
 0.007940986609312951    6    3    5    5
 0.1191500385714285    6    3    6    3
 0.06323327415993894    6    3    8    1
 0.04504398998290074    6    3    8    4
 -0.0389900229457943    6    3    8    5
 -0.05567691518753918    6    3    9    1
 0.03899002294579425    6    3    9    4
 0.04504398998290076    6    3    9    5
 0.0226452738989108    6    3   10    2
 0.05510330745914018    6    3   10    3
 0.04250210519463857    6    3   10    6
 0.04174630494926564    6    3   10    7
 0.02280755977570265    6    3   10   10
 -0.05510330745914016    6    3   11    2
 0.02264527389891079    6    3   11    3
 -0.04174630494926576    6    3   11    6
 0.04250210519463875    6    3   11    7
 0.05503633472507923    6    3   11   10
 -0.02280755977570272    6    3   11   11
 0.05162887074947328    6    3   12    4
 0.02972612702703478    6    3   12    5
 -2.303533928551659e-05    6    3   12    8
 0.0003451547843316303    6    3   12    9
 -0.02312514487113973    6    3   12   12
 -0.02972612702703477    6    3   13    4
 0.0516288707494733    6    3   13    5
 -0.007934289112739801    6    3   13    8
 0.1188850667047647    6    3   13    9
 0.05490364830848696    6    3   13   12
 0.02312514487113976    6    3   13   13
 0.05976410037895821    6    3   14    6
 0.05938533616710659    6    3   14    7
 0.03270502332149212    6    3   14   10
 0.07764500818035329    6    3   14   11
 -0.02239714853892996    6    4    2    1
 0.08122027815214344    6    4    3    1
 0.05904340483545928    6    4    4    2
 -0.007940986609312937    6    4    4    3
 -0.007940986609312964    6    4    5    2
 -0.05904340483545941    6    4    5    3
 0.1191500385714286    6    4    6    4
 0.03899002294579429    6    4    8    2
 0.04504398998290075    6    4    8    3
 0.03263800853715206    6    4    8    6
 -0.0498391745680245    6    4    8    7
 -0.04504398998290073    6    4    9    2
 0.03899002294579425    6    4    9    3
 -0.04983917456802447    6    4    9    6
 -0.03263800853715196    6    4    9    7
 0.04224983295412241    6    4   10    1
 0.001025310577405787    6    4   10    8
 -0.01536295371342968    6    4   10    9
 -0.072892506206984    6    4   11    1
 0.007867795915709672    6    4   11    8
 -0.1178887520945935    6    4   11    9
 0.02972612702703482    6    4   12    2
 0.05162887074947328    6    4   12    3
 -0.0474359550926457    6    4   12    6
 -0.03604182414004207    6    4   12    7
 -0.01567120734723274    6    4   12   10
 -0.05747691869936373    6    4   12   11
 0.05162887074947324    6    4   13    2
 -0.02972612702703477    6    4   13    3
 0.03604182414004209    6    4   13    6
 -0.04743595509264575    6    4   13    7
 -0.05747691869936362    6    4   13   10
 0.01567120734723264    6    4   13   11
 -0.06682160430933941    6    4   14    4
 -0.05131509566699191    6    4   14    5
 0.02216125119734199    6    4   14   12
 -0.08128496042414475    6    4   14   13
 -0.0812202781521435    6    5    2    1
 -0.02239714853892992    6    5    3    1
 -0.007940986609312962    6    5    4    2
 -0.05904340483545941    6    5    4    3
 -0.0590434048354592    6    5    5    2
 0.007940986609312951    6    5    5    3
 0.1191500385714285    6    5    6    5
 0.04504398998290071    6    5    8    2
 -0.0389900229457943    6    5    8    3
 -0.0498391745680244    6    5    8    6
 -0.03263800853715196    6    5    8    7
 0.03899002294579427    6    5    9    2
 0.04504398998290075    6    5    9    3
 -0.03263800853715202    6    5    9    6
 0.04983917456802445    6    5    9    7
 -0.07289250620698398    6    5   10    1
 -0.007867795915709618    6    5   10    8
 0.1178887520945935    6    5   10    9
 -0.04224983295412241    6    5   11    1
 0.001025310577405833    6    5   11    8
 -0.01536295371342966    6    5   11    9
 -0.05162887074947331    6    5   12    2
 0.02972612702703478    6    5   12    3
 0.03604182414004206    6    5   12    6
 -0.04743595509264566    6    5   12    7
 -0.05747691869936378    6    5   12   10
 0.01567120734723269    6    5   12   11
 0.02972612702703476    6    5   13    2
 0.0516288707494733    6    5   13    3
 0.04743595509264576    6    5   13    6
 0.03604182414004217    6    5   13    7
 0.01567120734723267    6    5   13   10
 0.05747691869936382    6    5   13   11
 -0.05131509566699191    6    5   14    4
 0.06682160430933938    6    5   14    5
 0.08128496042414454    6    5   14   12
 0.02216125119734198    6    5   14   13
 0.1191500385714283    6    6    1    1
 0.1191500385714284    6    6    2    2
 0.1191500385714285    6    6    3    3
 0.1191500385714286    6    6    4    4
 0.1191500385714285    6    6    5    5
 0.1787250578571425    6    6    6    6
 0.05957501928571415    6    6    7    7
 0.03263800853715206    6    6    8    4
 -0.0498391745680244    6    6    8    5
 0.06010337391409863    6    6    8    8
 -0.04983917456802447    6    6    9    4
 -0.03263800853715203    6    6    9    5
 -0.007916711169296386    6    6    9    8
 0.1781967032287583    6    6    9    9
 0.04174630494926582    6    6   10    2
 0.04250210519463858    6    6   10    3
 -0.02229448389321104    6    6   10    6
 0.0552461664808389    6    6   10    7
 0.1191500385714284    6    6   10   10
 0.04250210519463865    6    6   11    2
 -0.04174630494926576    6    6   11    3
 0.05524616648083898    6    6   11    6
 0.02229448389321106    6    6   11    7
 0.1191500385714286    6    6   11   11
 0.05921157563582303    6    6   12    1
 -0.04743595509264569    6    6   12    4
 0.03604182414004206    6    6   12    5
 0.1191500385714284    6    6   12   12
 -0.05993625911340848    6    6   13    1
 0.03604182414004208    6    6   13    4
 0.04743595509264576    6    6   13    5
 0.1191500385714285    6    6   13   13
 -0.05938533616710653    6    6   14    2
 0.05976410037895821    6    6   14    3
 0.1191500385714284    6    6   14   14
 -0.08122027815214353    7    1    4    2
 -0.02239714853892992    7    1    4    3
 0.02239714853892994    7    1    5    2
 -0.08122027815214346    7    1    5    3
 0.1191500385714283    7    1    7    1
 0.06323327415993898    7    1    8    2
 -0.05567691518753921    7    1    8    3
 -0.05567691518753923    7    1    9    2
 -0.06323327415993892    7    1    9    3
 0.07289250620698402    7    1   10    4
 0.04224983295412241    7    1   10    5
 0.04224983295412242    7    1   11    4
 -0.07289250620698402    7    1   11    5
 -0.05993625911340855    7    1   12    6
 -0.05921157563582306    7    1   12    7
 0.03247946244828578    7    1   12   10
 0.07773963188012173    7    1   12   11
 -0.05921157563582295    7    1   13    6
 0.05993625911340852    7    1   13    7
 -0.0777396318801217    7    1   13   10
 0.03247946244828575    7    1   13   11
 0.1188855677415113    7    1   14    8
 0.007934322551509856    7    1   14    9
 0.02344355196360349    7    2    2    2
 -0.05476844706784236    7    2    3    2
 -0.02344355196360339    7    2    3    3
 -0.08122027815214353    7    2    4    1
 -0.007940986609312915    7    2    4    4
 0.02239714853892994    7    2    5    1
 -0.0590434048354593    7    2    5    4
 0.007940986609312889    7    2    5    5
 0.1191500385714283    7    2    7    2
 0.063233274159939    7    2    8    1
 -0.04504398998290072    7    2    8    4
 0.03899002294579421    7    2    8    5
 -0.05567691518753923    7    2    9    1
 -0.03899002294579422    7    2    9    4
 -0.04504398998290069    7    2    9    5
 0.02264527389891077    7    2   10    2
 0.05510330745914017    7    2   10    3
 -0.04250210519463876    7    2   10    6
 -0.04174630494926577    7    2   10    7
 0.02280755977570283    7    2   10   10
 -0.05510330745914022    7    2   11    2
 0.02264527389891081    7    2   11    3
 0.04174630494926568    7    2   11    6
 -0.04250210519463864    7    2   11    7
 0.05503633472507941    7    2   11   10
 -0.02280755977570278    7    2   11   11
 0.05162887074947341    7    2   12    4
 0.02972612702703477    7    2   12    5
 -0.1188850667047646    7    2   12    8
 -0.007934289112739825    7    2   12    9
 0.02312514487113979    7    2   12   12
 -0.02972612702703476    7    2   13    4
 0.05162887074947328    7    2   13    5
 0.0003451547843316624    7    2   13    8
 2.303533928563889e-05    7    2   13    9