 &FCI NORB=  14,NELEC= 8,MS2=2,
  ORBSYM=1,1,1,1,1,1,1,1,1,1,1,1,1,1
  ISYM=1,
 &END
 0.5530454878571429    1    1    1    1
 -1.713906794265085e-15    1    1    2    1
 0.5530454878571437    1    1    2    2
 1.471045507628332e-15    1    1    3    1
 0.5530454878571425    1    1    3    3
 0.5530454878571425    1    1    4    4
 -1.131039706336878e-15    1    1    5    1
 3.117514926764819e-15    1    1    5    3
 0.5530454878571434    1    1    5    5
 -2.478919847170857e-15    1    1    6    1
 1.096345236817342e-15    1    1    6    2
 0.5530454878571429    1    1    6    6
 1.068589661201713e-15    1    1    7    2
 1.65145674912992e-15    1    1    7    5
 0.5530454878571429    1    1    7    7
 -1.255939796607208e-15    1    1    8    1
 1.819724926299671e-15    1    1    8    2
 1.693957474291352e-15    1    1    8    6
 0.5530454878571429    1    1    8    8
 1.0620844481668e-15    1    1    9    3
 -1.540434446667405e-15    1    1    9    7
 0.5530454878571425    1    1    9    9
 1.554312234475219e-15    1    1   10    4
 -1.232521029681521e-15    1    1   10    8
 0.5530454878571425    1    1   10   10
 1.942890293094024e-15    1    1   11    5
 1.949829186997931e-15    1    1   11    9
 0.5530454878571438    1    1   11   11
 1.693090112553364e-15    1    1   12    6
 1.137978600240785e-15    1    1   12    8
 0.5530454878571437    1    1   12   12
 -1.195441315382517e-15    1    1   13    7
 -3.079134169858833e-15    1    1   13   11
 0.5530454878571427    1    1   13   13
 2.203966176228533e-15    1    1   14    8
 1.1518563880486e-15    1    1   14   11
 1.609823385706477e-15    1    1   14   12
 1.429412144204889e-15    1    1   14   13
 0.5530454878571429    1    1   14   14
 -1.720845688168993e-15    2    1    1    1
 0.5530454878571437    2    1    2    1
 1.637578961322106e-15    2    1    2    2
 -3.748303750716886e-15    2    1    3    2
 -1.77856590132669e-15    2    1    3    3
 0.1904528812103245    2    1    4    2
 -0.3415513956321341    2    1    4    3
 -0.3415513956321347    2    1    5    2
 -0.190452881210325    2    1    5    3
 1.096345236817342e-15    2    1    6    1
 -2.099015405931937e-15    2    1    6    2
 -0.3831091486949501    2    1    6    4
 -0.078466782817977    2    1    6    5
 1.068589661201713e-15    2    1    7    1
 -1.023486850826316e-15    2    1    7    3
 0.07846678281797666    2    1    7    4
 -0.3831091486949501    2    1    7    5
 1.849215225391276e-15    2    1    8    1
 -0.3691076878510406    2    1    8    6
 -0.1291865727884734    2    1    8    7
 -0.1291865727884731    2    1    9    6
 0.3691076878510407    2    1    9    7
 0.3447358969734514    2    1   10    8
 -0.1846261551283633    2    1   10    9
 2.116362640691705e-15    2    1   10   10
 -1.124100812432971e-15    2    1   11    2
 -1.210836986231811e-15    2    1   11    6
 -0.1846261551283637    2    1   11    8
 -0.3447358969734518    2    1   11    9
 1.679212324745549e-15    2    1   11   10
 -5.717648576819556e-15    2    1   11   11
 -1.061650767297806e-15    2    1   12    4
 -1.708702623837155e-15    2    1   12    8
 -0.2517559764110923    2    1   12   10
 -0.2992466944861236    2    1   12   11
 -4.801714581503802e-15    2    1   12   12
 -1.460637166772472e-15    2    1   13    9
 -0.2992466944861212    2    1   13   10
 0.2517559764110925    2    1   13   11
 -3.738329090730019e-15    2    1   13   12
 1.967176421757699e-15    2    1   13   13
 -1.224714774039626e-15    2    1   14    6
 3.531896997088779e-15    2    1   14   10
 -1.061650767297806e-15    2    1   14   11
 -0.5529875165079272    2    1   14   12
 -0.008007385686956157    2    1   14   13
 4.218847493575595e-15    2    1   14   14
 0.5530454878571437    2    2    1    1
 1.706967900361178e-15    2    2    2    1
 0.8295682317857154    2    2    2    2
 -3.74873743158588e-15    2    2    3    1
 0.2765227439285716    2    2    3    3
 0.1904528812103245    2    2    4    1
 3.4555691641458e-15    2    2    4    2
 0.5530454878571437    2    2    4    4
 -0.3415513956321347    2    2    5    1
 1.603751853540558e-15    2    2    5    3
 0.5530454878571427    2    2    5    5
 -2.109423746787797e-15    2    2    6    1
 -0.08347198018667989    2    2    6    2
 0.2636233230074702    2    2    6    3
 -1.111957748101133e-15    2    2    6    4
 0.5530454878571432    2    2    6    6
 0.2636233230074702    2    2    7    2
 0.08347198018668039    2    2    7    3
 -1.77635683940025e-15    2    2    7    5
 0.5530454878571431    2    2    7    7
 2.491062911502695e-15    2    2    8    2
 0.2373614471171499    2    2    8    4
 0.1418603938110947    2    2    8    5
 -1.577731001400906e-15    2    2    8    6
 0.5530454878571427    2    2    8    8
 0.1418603938110948    2    2    9    4
 -0.2373614471171499    2    2    9    5
 1.498801083243961e-15    2    2    9    7
 0.5530454878571428    2    2    9    9
 1.637578961322106e-15    2    2   10    4
 -0.1869528852384139    2    2   10    6
 -0.2037484886099009    2    2   10    7
 2.775557561562891e-15    2    2   10    8
 -1.262878690511116e-15    2    2   10    9
 0.5530454878571429    2    2   10   10
 -1.110223024625157e-15    2    2   11    1
 1.221245327087672e-15    2    2   11    5
 0.2037484886099008    2    2   11    6
 -0.1869528852384141    2    2   11    7
 2.484124017598788e-15    2    2   11    8
 0.5530454878571445    2    2   11   11
 1.533495552763497e-15    2    2   12    6
 1.193489751472043e-15    2    2   12    7
 -0.05703067180037676    2    2   12    8
 0.2705777714147715    2    2   12    9
 -2.345346139520643e-15    2    2   12   10
 2.289834988289385e-15    2    2   12   11
 0.8294522951639587    2    2   12   12
 -1.831434309762514e-15    2    2   13    7
 -0.2705777714147707    2    2   13    8
 -0.05703067180037751    2    2   13    9
 2.115278438519219e-15    2    2   13   11
 0.008006546336555051    2    2   13   12
 0.2766386805503274    2    2   13   13
 3.464242781525684e-15    2    2   14    8
 -1.873501354054952e-15    2    2   14    9
 0.2560622931914699    2    2   14   10
 0.2955702248622118    2    2   14   11
 -2.373101715136272e-15    2    2   14   12
 1.7277845820729e-15    2    2   14   13
 0.5530454878571414    2    2   14   14
 1.460420326337974e-15    3    1    1    1
 -3.742232218550967e-15    3    1    2    2
 0.5530454878571425    3    1    3    1
 -1.750823878238217e-15    3    1    3    2
 3.649453311706415e-15    3    1    3    3
 -0.3415513956321341    3    1    4    2
 -0.1904528812103248    3    1    4    3
 1.165951016290911e-15    3    1    4    4
 3.180181812334482e-15    3    1    5    1
 -0.190452881210325    3    1    5    2
 0.3415513956321339    3    1    5    3
 -1.962839613067757e-15    3    1    5    5
 -4.549878133757942e-15    3    1    6    3
 0.07846678281797638    3    1    6    4
 -0.3831091486949501    3    1    6    5
 -1.030425744730223e-15    3    1    7    2
 0.3831091486949492    3    1    7    4
 0.07846678281797663    3    1    7    5
 -1.574884970698132e-15    3    1    8    4
 -2.427799714738166e-15    3    1    8    5
 0.1291865727884728    3    1    8    6
 -0.3691076878510408    3    1    8    7
 1.061650767297806e-15    3    1    9    1
 -2.265982540494704e-15    3    1    9    4
 -0.36910768785104    3    1    9    6
 -0.1291865727884728    3    1    9    7
 1.323648222278928e-15    3    1    9    8
 2.455934761114165e-15    3    1   10    7
 -0.1846261551283626    3    1   10    8
 -0.3447358969734511    3    1   10    9
 -1.915134717478395e-15    3    1   10   10
 -4.221232738355063e-15    3    1   11    6
 -0.3447358969734519    3    1   11    8
 0.1846261551283629    3    1   11    9
 2.924743780496897e-15    3    1   11   10
 3.589576552665008e-15    3    1   11   11
 -1.720412007299998e-15    3    1   12    9
 0.299246694486122    3    1   12   10
 -0.2517559764110925    3    1   12   11
 2.325091887685898e-15    3    1   13    8
 -0.2517559764110919    3    1   13   10
 -0.2992466944861205    3    1   13   11
 2.248045770803647e-15    3    1   13   12
 2.997602166487923e-15    3    1   13   13
 -1.069457022939702e-15    3    1   14    7
 -1.06880650163621e-15    3    1   14   10
 -3.670674875166924e-15    3    1   14   11
 -0.008007385686956529    3    1   14   12
 0.5529875165079284    3    1   14   13
 -3.982925100842749e-15    3    1   14   14
 -3.74873743158588e-15    3    2    2    1
 -1.771640559949939e-15    3    2    3    1
 0.2765227439285716    3    2    3    2
 -0.341551395632134    3    2    4    1
 1.139550693390889e-15    3    2    4    3
 -0.190452881210325    3    2    5    1
 1.604185534409552e-15    3    2    5    2
 1.213954067477707e-15    3    2    5    3
 0.2636233230074702    3    2    6    2
 0.08347198018668071    3    2    6    3
 1.141068576432369e-15    3    2    6    4
 -1.044303532538038e-15    3    2    7    1
 0.08347198018668042    3    2    7    2
 -0.2636233230074694    3    2    7    3
 2.748669347685251e-15    3    2    7    5
 1.612923526293428e-15    3    2    8    3
 -0.1418603938110945    3    2    8    4
 0.2373614471171499    3    2    8    5
 1.977042661527317e-15    3    2    8    6
 1.365796581734302e-15    3    2    9    3
 0.2373614471171497    3    2    9    4
 0.1418603938110946    3    2    9    5
 -1.965441698281722e-15    3    2    9    7
 0.2037484886099004    3    2   10    6
 -0.1869528852384139    3    2   10    7
 -3.46939274184499e-15    3    2   10    8
 1.350265385613447e-15    3    2   11    4
 0.1869528852384138    3    2   11    6
 0.203748488609901    3    2   11    7
 2.038083243838251e-15    3    2   11    8
 0.2705777714147714    3    2   12    8
 0.05703067180037728    3    2   12    9
 4.440458417631632e-15    3    2   12   11
 0.008006546336555401    3    2   12   12
 -0.05703067180037796    3    2   13    8
 0.2705777714147703    3    2   13    9
 -0.2764068073068155    3    2   13   12
 -0.008006546336555617    3    2   13   13
 -0.2955702248622114    3    2   14   10
 0.2560622931914704    3    2   14   11
 2.371800672529289e-15    3    2   14   12
 2.220446049250313e-15    3    2   14   13
 0.5530454878571425    3    3    1    1
 -1.74388498433431e-15    3    3    2    1
 0.2765227439285716    3    3    2    2
 3.656392629126795e-15    3    3    3    1
 0.8295682317857145    3    3    3    3
 -0.1904528812103248    3    3    4    1
 1.146489587294797e-15    3    3    4    2
 0.5530454878571429    3    3    4    4
 0.3415513956321339    3    3    5    1
 1.213954067477707e-15    3    3    5    2
 2.96497361032674e-15    3    3    5    3
 0.5530454878571436    3    3    5    5
 -4.546408686805989e-15    3    3    6    1
 0.08347198018668071    3    3    6    2
 -0.2636233230074699    3    3    6    3
 0.5530454878571431    3    3    6    6
 -0.2636233230074694    3    3    7    2
 -0.08347198018668023    3    3    7    3
 1.660049051346868e-15    3    3    7    5
 0.5530454878571429    3    3    7    7
 1.623331867149289e-15    3    3    8    2
 -1.82153323576294e-15    3    3    8    3
 -0.2373614471171498    3    3    8    4
 -0.1418603938110943    3    3    8    5
 1.716151008058836e-15    3    3    8    6
 0.5530454878571435    3    3    8    8
 1.367531305210279e-15    3    3    9    2
 3.388367687693012e-15    3    3    9    3
 -0.1418603938110941    3    3    9    4
 0.2373614471171497    3    3    9    5
 -1.933417076611932e-15    3    3    9    7
 0.5530454878571421    3    3    9    9
 2.96048179460745e-15    3    3   10    4
 0.1869528852384136    3    3   10    6
 0.2037484886099004    3    3   10    7
 -2.781998400093813e-15    3    3   10    8
 1.039356860126073e-15    3    3   10    9
 0.5530454878571432    3    3   10   10
 3.665823070445051e-15    3    3   11    5
 -0.2037484886099003    3    3   11    6
 0.1869528852384144    3    3   11    7
 -2.122054702097254e-15    3    3   11    8
 0.5530454878571425    3    3   11   11
 2.248472675409063e-15    3    3   12    6
 1.523493787722319e-15    3    3   12    7
 0.05703067180037764    3    3   12    8
 -0.2705777714147708    3    3   12    9
 -2.428938127019276e-15    3    3   12   10
 0.2766386805503284    3    3   12   12
 1.479697102151588e-15    3    3   13    6
 -2.17684820466395e-15    3    3   13    7
 0.2705777714147706    3    3   13    8
 0.05703067180037764    3    3   13    9
 -1.747860109955774e-15    3    3   13   10
 -6.359251470409218e-15    3    3   13   11
 -0.008006546336555627    3    3   13   12
 0.8294522951639591    3    3   13   13
 2.644489377370655e-15    3    3   14    8
 -0.2560622931914707    3    3   14   10
 -0.2955702248622111    3    3   14   11
 2.245464014380416e-15    3    3   14   12
 -1.831867990631508e-15    3    3   14   13
 0.5530454878571449    3    3   14   14
 0.1904528812103245    4    1    2    2
 -0.341551395632134    4    1    3    2
 -0.1904528812103248    4    1    3    3
 0.5530454878571425    4    1    4    1
 1.16605943650816e-15    4    1    4    3
 -0.3831091486949501    4    1    6    2
 0.07846678281797631    4    1    6    3
 1.752938072474564e-15    4    1    6    4
 0.07846678281797667    4    1    7    2
 0.3831091486949492    4    1    7    3
 -1.602667651368073e-15    4    1    8    3
 0.3387019297299095    4    1    8    4
 -0.1954754680690343    4    1    8    5
 -2.265765700060207e-15    4    1    9    3
 -0.1954754680690341    4    1    9    4
 -0.3387019297299093    4    1    9    5
 1.578598363138894e-15    4    1   10    1
 -0.3804254752877101    4    1   10    6
 0.09058760164444324    4    1   10    7
 2.563053935755732e-15    4    1   10    8
 -1.394717674685353e-15    4    1   11    4
 -1.547373340571312e-15    4    1   11    5
 -0.09058760164444329    4    1   11    6
 -0.3804254752877108    4    1   11    7
 4.315992008230296e-15    4    1   11    9
 1.443289932012704e-15    4    1   11   10
 -1.047772979489991e-15    4    1   12    2
 -0.3734877997672683    4    1   12    8
 0.1159160008134248    4    1   12    9
 2.609024107869118e-15    4    1   12   10
 -1.547373340571312e-15    4    1   12   11
 0.1804836197313947    4    1   12   12
 -0.1159160008134236    4    1   13    8
 -0.3734877997672671    4    1   13    9
 2.483690336729794e-15    4    1   13   10
 0.3469226409853153    4    1   13   12
 -0.1804836197313949    4    1   13   13
 1.085936895961481e-15    4    1   14    4
 1.245531455751347e-15    4    1   14    8
 0.5414390953508857    4    1   14   10
 -0.1127076646229513    4    1   14   11
 1.096345236817342e-15    4    1   14   12
 0.1904528812103245    4    2    2    1
 3.441691376337985e-15    4    2    2    2
 -0.341551395632134    4    2    3    1
 1.174245162910426e-15    4    2    3    3
 0.5530454878571437    4    2    4    2
 -1.384309333829492e-15    4    2    4    4
 -0.3831091486949501    4    2    6    1
 -1.044303532538038e-15    4    2    6    2
 1.137544919371791e-15    4    2    6    3
 -0.180391455241385    4    2    6    4
 0.2095799388913021    4    2    6    5
 -1.049074022096974e-15    4    2    6    6
 0.07846678281797667    4    2    7    1
 -0.2095799388913018    4    2    7    4
 -0.1803914552413844    4    2    7    5
 0.2373614471171499    4    2    8    2
 -0.1418603938110945    4    2    8    3
 -0.2068934280691634    4    2    8    6
 0.1834664474272512    4    2    8    7
 2.112459512870757e-15    4    2    8    8
 0.1418603938110948    4    2    9    2
 0.2373614471171497    4    2    9    3
 -1.096345236817342e-15    4    2    9    5
 0.1834664474272508    4    2    9    6
 0.2068934280691633    4    2    9    7
 -1.739927646404738e-15    4    2    9    8
 -1.262878690511116e-15    4    2    9    9
 1.60288449180257e-15    4    2   10    2
 0.2763834096826877    4    2   10    4
 -0.008777172777056405    4    2   10    5
 -1.715641517741062e-15    4    2   10    6
 0.2327390216819835    4    2   10    8
 0.1493230581534519    4    2   10    9
 2.633310236532793e-15    4    2   10   10
 1.343109651275043e-15    4    2   11    3
 0.008777172777056152    4    2   11    4
 0.2763834096826873    4    2   11    5
 2.171873791922962e-15    4    2   11    7
 0.1493230581534537    4    2   11    8
 -0.2327390216819844    4    2   11    9
 -1.096345236817342e-15    4    2   11   10
 -2.012279232133096e-15    4    2   11   11
 -1.054711873393899e-15    4    2   12    1
 -1.068589661201713e-15    4    2   12    4
 0.2221922609157578    4    2   12    6
 0.1646068865477098    4    2   12    7
 -0.5413823406072629    4    2   12   10
 0.112695850377055    4    2   12   11
 -4.662936703425657e-15    4    2   12   12
 0.1646068865477087    4    2   13    6
 -0.2221922609157572    4    2   13    7
 1.010883000571172e-15    4    2   13    8
 -0.007839340086237717    4    2   13   10
 0.001631861682857997    4    2   13   11
 -1.540542866884653e-15    4    2   13   12
 -3.289035710452026e-15    4    2   13   13
 -1.481453848484193e-15    4    2   14    6
 0.3751269642736942    4    2   14    8
 -0.1104962284169695    4    2   14    9
 2.806782584130474e-15    4    2   14   10
 -0.1854876936669453    4    2   14   12
 -0.3442731057136033    4    2   14   13
 2.130240428499519e-15    4    2   14   14
 -0.341551395632134    4    3    2    1
 -0.1904528812103248    4    3    3    1
 1.118734011679168e-15    4    3    3    2
 1.221570587739418e-15    4    3    4    1
 0.5530454878571429    4    3    4    3
 0.07846678281797635    4    3    6    1
 1.12713657851593e-15    4    3    6    2
 0.2095799388913025    4    3    6    4
 0.1803914552413842    4    3    6    5
 0.3831091486949492    4    3    7    1
 -0.1803914552413842    4    3    7    4
 0.2095799388913024    4    3    7    5
 -1.633892673935655e-15    4    3    8    1
 -0.1418603938110945    4    3    8    2
 -0.2373614471171498    4    3    8    3
 0.1834664474272513    4    3    8    6
 0.2068934280691635    4    3    8    7
 -2.25210475268689e-15    4    3    9    1
 0.2373614471171497    4    3    9    2
 -0.141860393811094    4    3    9    3
 0.206893428069163    4    3    9    6
 -0.1834664474272512    4    3    9    7
 -1.33026185553109e-15    4    3    9    8
 2.974352806151687e-15    4    3   10    3
 0.008777172777056261    4    3   10    4
 0.2763834096826869    4    3   10    5
 -1.873935034923946e-15    4    3   10    7
 -0.1493230581534536    4    3   10    8
 0.2327390216819836    4    3   10    9
 -1.213981172532019e-15    4    3   10   10
 1.346795938661494e-15    4    3   11    2
 -0.2763834096826873    4    3   11    4
 0.008777172777056492    4    3   11    5
 -1.409354404013907e-15    4    3   11    6
 0.2327390216819841    4    3   11    8
 0.1493230581534519    4    3   11    9
 -3.541654816641149e-15    4    3   11   10
 2.486726102812753e-15    4    3   11   11
 1.307114139148524e-15    4    3   12    5
 -0.1646068865477094    4    3   12    6
 0.2221922609157573    4    3   12    7
 -2.800494211530058e-15    4    3   12    9
 -0.0078393400862372    4    3   12   10
 0.00163186168285984    4    3   12   11
 2.732839995966962e-15    4    3   12   12
 1.017289957784204e-15    4    3   13    4
 0.2221922609157566    4    3   13    6
 0.1646068865477087    4    3   13    7
 -1.979885304098303e-15    4    3   13    9
 0.5413823406072625    4    3   13   10
 -0.112695850377056    4    3   13   11
 1.621370138843448e-15    4    3   13   12
 -1.665334536937735e-15    4    3   13   13
 1.019637933113993e-15    4    3   14    6
 -0.1104962284169694    4    3   14    8
 -0.3751269642736943    4    3   14    9
 -2.514915359297376e-15    4    3   14   10
 0.3442731057136041    4    3   14   12
 -0.1854876936669459    4    3   14   13
 -1.228184220991579e-15    4    3   14   14
 0.5530454878571426    4    4    1    1
 0.5530454878571437    4    4    2    2
 1.207692799931603e-15    4    4    3    1
 0.5530454878571429    4    4    3    3
 -1.412064909445121e-15    4    4    4    2
 0.8295682317857156    4    4    4    4
 0.2765227439285715    4    4    5    5
 1.764213775068413e-15    4    4    6    1
 -0.180391455241385    4    4    6    2
 0.2095799388913025    4    4    6    3
 -1.275889116580942e-15    4    4    6    5
 0.5530454878571434    4    4    6    6
 -0.2095799388913018    4    4    7    2
 -0.1803914552413842    4    4    7    3
 1.840541608011392e-15    4    4    7    4
 1.835337437583462e-15    4    4    7    5
 0.5530454878571428    4    4    7    7
 0.3387019297299095    4    4    8    1
 0.5530454878571438    4    4    8    8
 -0.1954754680690342    4    4    9    1
 -1.640181046536071e-15    4    4    9    6
 -2.078198724220215e-15    4    4    9    7
 0.5530454878571422    4    4    9    9
 0.2763834096826877    4    4   10    2
 0.008777172777056303    4    4   10    3
 -1.058181320345852e-15    4    4   10    5
 -1.449361464178622e-15    4    4   10    6
 -1.471045507628332e-15    4    4   10    9
 0.8065990223017369    4    4   10   10
 -1.419003803349028e-15    4    4   11    1
 0.008777172777056169    4    4   11    2
 -0.2763834096826873    4    4   11    3
 -1.706967900361178e-15    4    4   11    5
 1.193489751472043e-15    4    4   11    9
 -0.1103423449109217    4    4   11   10
 0.2994919534125504    4    4   11   11
 -1.110223024625157e-15    4    4   12    2
 -0.2697061567311373    4    4   12    4
 0.06101980769476416    4    4   12    5
 -1.28196064874686e-15    4    4   12    6
 -0.1945993910539959    4    4   12    8
 -0.1964584050408638    4    4   12    9
 2.310651670001107e-15    4    4   12   10
 0.553045487857144    4    4   12   12
 1.017289957784204e-15    4    4   13    3
 0.06101980769476401    4    4   13    4
 0.269706156731136    4    4   13    5
 -2.423828824281438e-15    4    4   13    6
 1.183189830833431e-15    4    4   13    7
 -0.1964584050408651    4    4   13    8
 0.1945993910539956    4    4   13    9
 -2.128288864589045e-15    4    4   13   11
 0.5530454878571426    4    4   13   13
 1.082467449009528e-15    4    4   14    1
 1.495331636292008e-15    4    4   14    4
 -0.3539804816446454    4    4   14    6
 0.1662151450205355    4    4   14    7
 1.262445009642121e-15    4    4   14    8
 1.137978600240785e-15    4    4   14   11
 1.31492039479042e-15    4    4   14   12
 2.720046410331634e-15    4    4   14   13
 0.5530454878571432    4    4   14   14
 -1.117161918529064e-15    5    1    1    1
 -0.3415513956321346    5    1    2    2
 3.166304024526667e-15    5    1    3    1
 -0.190452881210325    5    1    3    2
 0.3415513956321339    5    1    3    3
 0.5530454878571434    5    1    5    1
 -1.976717400875572e-15    5    1    5    3
 -0.07846678281797698    5    1    6    2
 -0.3831091486949501    5    1    6    3
 1.65145674912992e-15    5    1    7    1
 -0.3831091486949501    5    1    7    2
 0.07846678281797663    5    1    7    3
 -2.434792818750697e-15    5    1    8    3
 -0.1954754680690343    5    1    8    4
 -0.3387019297299097    5    1    8    5
 -0.3387019297299094    5    1    9    4
 0.1954754680690343    5    1    9    5
 1.11369247157711e-15    5    1    9    6
 0.09058760164444327    5    1   10    6
 0.3804254752877103    5    1   10    7
 2.720046410331634e-15    5    1   10    9
 1.922073611382302e-15    5    1   11    1
 -1.554312234475219e-15    5    1   11    4
 -0.3804254752877103    5    1   11    6
 0.09058760164444345    5    1   11    7
 -2.84668122407794e-15    5    1   11    8
 -1.929012505286209e-15    5    1   11   11
 -0.115916000813425    5    1   12    8
 -0.3734877997672684    5    1   12    9
 -1.35308431126191e-15    5    1   12   10
 -4.107825191113079e-15    5    1   12   11
 -0.346922640985315    5    1   12   12
 0.3734877997672678    5    1   13    8
 -0.115916000813424    5    1   13    9
 -3.41892313071579e-15    5    1   13   11
 0.180483619731395    5    1   13   12
 0.3469226409853161    5    1   13   13
 -1.387778780781446e-15    5    1   14    5
 1.762479051592436e-15    5    1   14    9
 -0.1127076646229512    5    1   14   10
 -0.541439095350886    5    1   14   11
 -6.342149028171207e-15    5    1   14   13
 2.34187669256869e-15    5    1   14   14
 -0.3415513956321347    5    2    2    1
 -0.190452881210325    5    2    3    1
 1.604185534409552e-15    5    2    3    2
 1.220892961381614e-15    5    2    3    3
 0.5530454878571427    5    2    5    2
 -0.078466782817977    5    2    6    1
 0.209579938891302    5    2    6    4
 0.1803914552413844    5    2    6    5
 -0.3831091486949501    5    2    7    1
 -1.831867990631508e-15    5    2    7    2
 2.741730453781344e-15    5    2    7    3
 -0.1803914552413844    5    2    7    4
 0.2095799388913017    5    2    7    5
 0.1418603938110947    5    2    8    2
 0.2373614471171499    5    2    8    3
 -1.85268467234323e-15    5    2    8    5
 0.1834664474272509    5    2    8    6
 0.2068934280691634    5    2    8    7
 -0.2373614471171499    5    2    9    2
 0.1418603938110945    5    2    9    3
 -1.082467449009528e-15    5    2    9    4
 0.2068934280691628    5    2    9    6
 -0.1834664474272508    5    2    9    7
 -0.008777172777056412    5    2   10    4
 -0.276383409682687    5    2   10    5
 -1.044303532538038e-15    5    2   10    6
 2.706168622523819e-15    5    2   10    7
 -0.1493230581534519    5    2   10    8
 0.2327390216819838    5    2   10    9
 1.235123114895487e-15    5    2   11    2
 0.2763834096826873    5    2   11    4
 -0.008777172777056502    5    2   11    5
 2.05391259555654e-15    5    2   11    6
 0.2327390216819833    5    2   11    8
 0.1493230581534535    5    2   11    9
 -1.082467449009528e-15    5    2   11   10
 2.55351295663786e-15    5    2   11   11
 0.1646068865477096    5    2   12    6
 -0.2221922609157575    5    2   12    7
 0.1126958503770554    5    2   12   10
 0.5413823406072632    5    2   12   11
 1.415534356397075e-15    5    2   12   12
 -0.2221922609157572    5    2   13    6
 -0.1646068865477091    5    2   13    7
 1.820158607168665e-15    5    2   13    8
 0.001631861682858259    5    2   13   10
 0.007839340086237555    5    2   13   11
 4.445879428494059e-15    5    2   13   12
 2.151057110211241e-15    5    2   14    7
 0.1104962284169696    5    2   14    8
 0.375126964273694    5    2   14    9
 -1.915134717478395e-15    5    2   14   11
 0.3442731057136019    5    2   14   12
 -0.1854876936669456    5    2   14   13
 -1.332267629550188e-15    5    2   14   14
 3.207937387950111e-15    5    3    1    1
 -0.190452881210325    5    3    2    1
 1.625002216121274e-15    5    3    2    2
 0.341551395632134    5    3    3    1
 1.217423514429661e-15    5    3    3    2
 2.966708333802717e-15    5    3    3    3
 -2.03222855210683e-15    5    3    5    1
 0.5530454878571436    5    3    5    3
 -2.171873791922962e-15    5    3    5    5
 -0.3831091486949501    5    3    6    1
 0.1803914552413842    5    3    6    4
 -0.2095799388913027    5    3    6    5
 0.07846678281797663    5    3    7    1
 2.749103028554245e-15    5    3    7    2
 1.646171263539054e-15    5    3    7    3
 0.2095799388913025    5    3    7    4
 0.1803914552413846    5    3    7    5
 -2.455555290353795e-15    5    3    8    1
 0.2373614471171499    5    3    8    2
 -0.1418603938110943    5    3    8    3
 1.331400267812199e-15    5    3    8    5
 0.2068934280691634    5    3    8    6
 -0.1834664474272516    5    3    8    7
 0.1418603938110945    5    3    9    2
 0.2373614471171498    5    3    9    3
 -2.866630544051674e-15    5    3    9    5
 -0.1834664474272512    5    3    9    6
 -0.2068934280691629    5    3    9    7
 -2.055647319032516e-15    5    3    9    9
 0.2763834096826869    5    3   10    4
 -0.008777172777056547    5    3   10    5
 -2.709421229041276e-15    5    3   10    6
 -1.935084037452128e-15    5    3   10    7
 -0.2327390216819838    5    3   10    8
 -0.1493230581534537    5    3   10    9
 -2.00750874257416e-15    5    3   10   10
 3.665809517917895e-15    5    3   11    3
 0.008777172777056492    5    3   11    4
 0.2763834096826867    5    3   11    5
 -0.149323058153452    5    3   11    8
 0.2327390216819831    5    3   11    9
 1.43158054854986e-15    5    3   11   10
 7.10109054891106e-15    5    3   11   11
 1.313836192617934e-15    5    3   12    4
 0.2221922609157574    5    3   12    6
 0.1646068865477096    5    3   12    7
 1.971838491099387e-15    5    3   12    8
 1.617629641348373e-15    5    3   12    9
 0.001631861682859618    5    3   12   10
 0.007839340086237446    5    3   12   11
 1.937686122666094e-15    5    3   12   12
 -1.326616225726107e-15    5    3   13    5
 0.1646068865477089    5    3   13    6
 -0.2221922609157574    5    3   13    7
 -0.1126958503770557    5    3   13   10
 -0.5413823406072628    5    3   13   11
 2.241791279521121e-15    5    3   13   12
 -4.968248035197576e-15    5    3   13   13
 1.048423500793483e-15    5    3   14    6
 0.3751269642736947    5    3   14    8
 -0.1104962284169695    5    3   14    9
 2.219578687512325e-15    5    3   14   11
 0.1854876936669453    5    3   14   12
 0.3442731057136055    5    3   14   13
 -5.676015213396113e-15    5    3   14   14
 0.2765227439285715    5    4    5    4
 0.209579938891302    5    4    6    2
 0.1803914552413842    5    4    6    3
 -1.275889116580942e-15    5    4    6    4
 -1.592476150946709e-15    5    4    6    5
 -0.1803914552413843    5    4    7    2
 0.2095799388913025    5    4    7    3
 1.838806884535416e-15    5    4    7    4
 -1.616762279610384e-15    5    4    7    5
 -0.1954754680690343    5    4    8    1
 -0.3387019297299093    5    4    9    1
 -1.110223024625157e-15    5    4    9    2
 -3.084338340286763e-15    5    4    9    6
 -0.008777172777056405    5    4   10    2
 0.2763834096826869    5    4   10    3
 -1.061650767297806e-15    5    4   10    4
 -2.831068712794149e-15    5    4   10    5
 -0.1103423449109218    5    4   10   10
 -1.561251128379126e-15    5    4   11    1
 0.2763834096826873    5    4   11    2
 0.008777172777056481    5    4   11    3
 -1.68962066560141e-15    5    4   11    4
 -0.2535535344445937    5    4   11   10
 0.1103423449109213    5    4   11   11