 &FCI NORB=  16,NELEC=10,MS2=0,
  ORBSYM=1,1,1,1,1,1,1,1,1,1,1,1,1,1,1,1
  ISYM=1,
 &END
 0.3750000000000007    1    1    1    1
 0.3750000000000003    1    1    2    2
 0.3750000000000003    1    1    3    3
 0.3750000000000006    1    1    4    4
 0.3750000000000004    1    1    5    5
 0.3750000000000002    1    1    6    6
 0.3750000000000001    1    1    7    7
 0.3750000000000003    1    1    8    8
 0.3750000000000002    1    1    9    9
 0.3750000000000004    1    1   10   10
 0.3750000000000001    1    1   11   11
 0.3750000000000004    1    1   12   12
 0.3750000000000002    1    1   13   13
 0.3750000000000003    1    1   14   14
 0.3750000000000003    1    1   15   15
 0.3750000000000007    1    1   16   16
 0.3750000000000003    2    1    2    1
 0.02586654558976429    2    1    6    2
 0.02492942783811502    2    1    6    3
 0.006358548079039748    2    1    6    4
 0.04186820883268752    2    1    6    5
 -0.1060036019404009    2    1    7    2
 -0.1120451445980593    2    1    7    3
 -0.01743961165090416    2    1    7    4
 0.100497412320376    2    1    7    5
 -0.1804288677549563    2    1    8    2
 -0.06722579441216905    2    1    8    3
 -0.07596259888154071    2    1    8    4
 -0.1640721772370626    2    1    8    5
 -0.1491983365210357    2    1    9    2
 0.0868501785079463    2    1    9    3
 -0.1236802829756553    2    1    9    4
 0.1721823647215286    2    1    9    5
 0.1892234627761944    2    1   10    2
 -0.0127433133341851    2    1   10    3
 0.1922138656949153    2    1   10    4
 0.09079699614588159    2    1   10    5
 0.2702546434460306    2    1   11    2
 -0.1769613388482316    2    1   11    3
 -0.2320128796712369    2    1   11    4
 -0.02728963140761517    2    1   11    5
 0.04536607019528555    2    1   12    6
 0.1015653432503869    2    1   12    7
 -0.0013223316620221    2    1   12    8
 -0.02486324212120283    2    1   12    9
 -0.160341492605635    2    1   12   10
 -0.05429760878771657    2    1   12   11
 0.008131283364478476    2    1   13    6
 -0.06527861048933782    2    1   13    7
 -0.009408978565689719    2    1   13    8
 0.132948527256063    2    1   13    9
 0.09251289478603973    2    1   13   10
 -0.3933200865734519    2    1   13   11
 0.09436979493451346    2    1   14    6
 0.003713091555979211    2    1   14    7
 -0.112542748289408    2    1   14    8
 -0.1486297891907871    2    1   14    9
 0.2663762461883854    2    1   14   10
 0.01530163864380501    2    1   14   11
 0.2090736265593006    2    1   15    6
 -0.03453456491697116    2    1   15    7
 0.1757340838447189    2    1   15    8
 -0.01044755176826919    2    1   15    9
 -0.06116026172534267    2    1   15   10
 0.01923738605932742    2    1   15   11
 0.1266968633082294    2    1   16   12
 -0.3456137931993972    2    1   16   13
 -0.03697398370910342    2    1   16   14
 0.06129384395564794    2    1   16   15
 0.3750000000000003    2    2    1    1
 0.8431697411045893    2    2    2    2
 -0.1027796226978517    2    2    3    2
 0.1512414912619654    2    2    3    3
 0.02090850320933649    2    2    4    2
 0.09356106259908578    2    2    4    3
 0.299167590700551    2    2    4    4
 0.01106588114588852    2    2    5    2
 0.0518389602725218    2    2    5    3
 0.03590762176452076    2    2    5    4
 0.2064211769328946    2    2    5    5
 0.02586654558976429    2    2    6    1
 0.1542015205609897    2    2    6    6
 -0.1060036019404009    2    2    7    1
 -0.01128387664127403    2    2    7    6
 0.1332746323996271    2    2    7    7
 -0.1804288677549563    2    2    8    1
 0.03277023450299066    2    2    8    6
 0.01463328808748049    2    2    8    7
 0.3024066543514143    2    2    8    8
 -0.1491983365210358    2    2    9    1
 -0.03074388224335063    2    2    9    6
 0.03773393403855539    2    2    9    7
 0.04239743085786808    2    2    9    8
 0.307307022737931    2    2    9    9
 0.1892234627761944    2    2   10    1
 0.0411457111479081    2    2   10    6
 -0.08554891677776089    2    2   10    7
 -0.2777816160034317    2    2   10    8
 -0.1603851108238554    2    2   10    9
 0.5069949004657833    2    2   10   10
 0.2702546434460306    2    2   11    1
 -0.0006246601257198295    2    2   11    6
 0.0320972411076107    2    2   11    7
 -0.02488663072964485    2    2   11    8
 -0.2269616435534236    2    2   11    9
 -0.0492317505319264    2    2   11   10
 0.8458152694842553    2    2   11   11
 -0.135091309026078    2    2   12    2
 -0.001780203171705318    2    2   12    3
 -0.04407832209341858    2    2   12    4
 -0.01342498097416794    2    2   12    5
 0.1538753290334543    2    2   12   12
 -0.2661304564293577    2    2   13    2
 0.234985379431405    2    2   13    3
 0.2519982475109451    2    2   13    4
 0.09959655302162612    2    2   13    5
 -0.1248526632066548    2    2   13   12
 0.8127985994327835    2    2   13   13
 0.2641831255393078    2    2   14    2
 -0.02535603035214428    2    2   14    3
 0.2003145194622264    2    2   14    4
 0.05591077991480996    2    2   14    5
 -0.1059305323285124    2    2   14   12
 0.03527273966340267    2    2   14   13
 0.3099563995259679    2    2   14   14
 -0.07321041936407327    2    2   15    2
 -0.01670562169631205    2    2   15    3
 -0.07025215766586775    2    2   15    4
 -0.08380587545256084    2    2   15    5
 0.06008649734621579    2    2   15   12
 -0.08932432174298847    2    2   15   13
 -0.0450302108697169    2    2   15   14
 0.2233696720077948    2    2   15   15
 0.03270174423523764    2    2   16    6
 0.08846707887161456    2    2   16    7
 0.04804509000822879    2    2   16    8
 -0.1179836661259892    2    2   16    9
 -0.1756966271565194    2    2   16   10
 0.3457890163864564    2    2   16   11
 0.3750000000000003    2    2   16   16
 0.3750000000000003    3    1    3    1
 0.02492942783811502    3    1    6    2
 0.0770239940038796    3    1    6    3
 0.01766151568010178    3    1    6    4
 0.2497097056503447    3    1    6    5
 -0.1120451445980593    3    1    7    2
 0.3925027498672355    3    1    7    3
 -0.06509670745370619    3    1    7    4
 0.00296377811203985    3    1    7    5
 -0.06722579441216905    3    1    8    2
 0.02245232942190933    3    1    8    3
 -0.161177770981524    3    1    8    4
 -0.09837276542524788    3    1    8    5
 0.08685017850794632    3    1    9    2
 -0.1010913491021566    3    1    9    3
 -0.1780926266604467    3    1    9    4
 0.1256974677702588    3    1    9    5
 -0.01274331333418509    3    1   10    2
 -0.1201442122936323    3    1   10    3
 -0.1084677700351427    3    1   10    4
 -0.0008746169842443145    3    1   10    5
 -0.1769613388482317    3    1   11    2
 -0.1205995524075907    3    1   11    3
 -0.0273798393258705    3    1   11    4
 0.05352255211811261    3    1   11    5
 -0.01184447781651674    3    1   12    6
 -0.3476545376249147    3    1   12    7
 -0.02824778766106198    3    1   12    8
 0.1730244661676662    3    1   12    9
 0.04740905135707817    3    1   12   10
 -0.09423147013400124    3    1   12   11
 -0.01190091173870827    3    1   13    6
 -0.2065394678042831    3    1   13    7
 -0.03207571663798133    3    1   13    8
 0.048623928682047    3    1   13    9
 0.1167200099257502    3    1   13   10
 0.1698934169378088    3    1   13   11
 -0.000566568455447683    3    1   14    6
 0.07270445821667296    3    1   14    7
 0.1475808215061537    3    1   14    8
 0.08646804299261568    3    1   14    9
 0.2038558528215633    3    1   14   10
 -0.003080440836185964    3    1   14   11
 0.287279171932469    3    1   15    6
 0.03423840636362527    3    1   15    7
 -0.03526994299105748    3    1   15    8
 0.09238374577687136    3    1   15    9
 -0.02585719638419236    3    1   15   10
 0.008312308665764753    3    1   15   11
 0.3513064146047137    3    1   16   12
 0.1304176832115838    3    1   16   13
 0.005976302592581559    3    1   16   14
 0.01281853231170507    3    1   16   15
 -0.1027796226978517    3    2    2    2
 0.1512414912619654    3    2    3    2
 -0.07859879215871693    3    2    3    3
 0.09356106259908577    3    2    4    2
 0.02487840150492619    3    2    4    3
 0.05605615388385882    3    2    4    4
 0.0518389602725218    3    2    5    2
 0.03723413598753957    3    2    5    3
 -0.05099620903524528    3    2    5    4
 0.1253222609727097    3    2    5    5
 0.02492942783811501    3    2    6    1
 0.1933523366575096    3    2    6    6
 -0.1120451445980593    3    2    7    1
 0.008440312473430581    3    2    7    6
 -0.1424192486994027    3    2    7    7
 -0.06722579441216905    3    2    8    1
 -0.003498331544143952    3    2    8    6
 -0.0039305428807681    3    2    8    7
 0.04409515937652608    3    2    8    8
 0.08685017850794632    3    2    9    1
 0.1055372618158244    3    2    9    6
 0.07836884709431559    3    2    9    7
 -0.02707223219311811    3    2    9    8
 0.02740626498811094    3    2    9    9
 -0.01274331333418509    3    2   10    1
 0.03434814637289599    3    2   10    6
 0.04123160207561281    3    2   10    7
 -0.0263689319430337    3    2   10    8
 -0.02922248425631151    3    2   10    9
 0.09939076577615137    3    2   10   10
 -0.1769613388482317    3    2   11    1
 -0.01856889343844846    3    2   11    6
 0.04578119371578291    3    2   11    7
 0.08978169541265738    3    2   11    8
 0.1435498987257371    3    2   11    9
 -0.007610373581327987    3    2   11   10
 -0.2218252780988957    3    2   11   11
 -0.001780203171705318    3    2   12    2
 0.191080243579689    3    2   12    3
 0.04722479637589811    3    2   12    4
 0.0156487755198291    3    2   12    5
 0.005100640330671691    3    2   12   12
 0.234985379431405    3    2   13    2
 -0.006206912396287852    3    2   13    3
 -0.04542193989735569    3    2   13    4
 -0.004422769765367172    3    2   13    5
 -0.09093343687929778    3    2   13   12
 -0.215857115823331    3    2   13   13
 -0.02535603035214428    3    2   14    2
 -0.03366522354865287    3    2   14    3
 0.04459218299391072    3    2   14    4
 0.04413551279687895    3    2   14    5
 -0.0713295700402493    3    2   14   12
 0.06229856788945593    3    2   14   13
 0.06610631051463516    3    2   14   14
 -0.01670562169631207    3    2   15    2
 0.03354293874058133    3    2   15    3
 -0.03844253790671083    3    2   15    4
 0.09223415507322191    3    2   15    5
 0.0522094733656286    3    2   15   12
 0.006995376564971708    3    2   15   13
 0.02731067564637386    3    2   15   14
 0.1446501649780238    3    2   15   15
 0.05397827757506121    3    2   16    6
 0.07132421217208867    3    2   16    7
 -0.0002975393796661504    3    2   16    8
 0.02021878291115647    3    2   16    9
 -0.1158819125730196    3    2   16   10
 -0.186754534503518    3    2   16   11
 0.3750000000000003    3    3    1    1
 0.1512414912619654    3    3    2    2
 -0.07859879215871693    3    3    3    2
 0.9075161494772906    3    3    3    3
 0.02487840150492619    3    3    4    2
 0.01740880649988457    3    3    4    3
 0.1993591485992766    3    3    4    4
 0.03723413598753955    3    3    5    2
 -0.002315760165128536    3    3    5    3
 -0.009822774884082876    3    3    5    4
 0.2418832106614678    3    3    5    5
 0.07702399400387962    3    3    6    1
 0.4054202806339303    3    3    6    6
 0.3925027498672355    3    3    7    1
 1.224497933605129e-15    3    3    7    3
 0.115732984419753    3    3    7    6
 0.9089048650408607    3    3    7    7
 0.02245232942190933    3    3    8    1
 -0.09828649231841108    3    3    8    6
 0.1400348855562705    3    3    8    7
 0.1747459899397563    3    3    8    8
 -0.1010913491021566    3    3    9    1
 0.1239574403646591    3    3    9    6
 -0.261839485296817    3    3    9    7
 0.03009734986241966    3    3    9    8
 0.3029132872550659    3    3    9    9
 -0.1201442122936323    3    3   10    1
 -0.05653364912859735    3    3   10    6
 -0.174197720591279    3    3   10    7
 0.1110450962910004    3    3   10    8
 0.1583005270210048    3    3   10    9
 0.2252267415353577    3    3   10   10
 -0.1205995524075907    3    3   11    1
 0.001772964196375189    3    3   11    6
 -0.07422957363414985    3    3   11    7
 0.01280286541448562    3    3   11    8
 0.002358246537333238    3    3   11    9
 0.09116551523037505    3    3   11   10
 0.232788835595029    3    3   11   11
 0.191080243579689    3    3   12    2
 -0.3995328703106948    3    3   12    3
 -0.01707147593168709    3    3   12    4
 0.04121206596718548    3    3   12    5
 0.7634206870477371    3    3   12   12
 -0.006206912396287859    3    3   13    2
 -0.3256850709875854    3    3   13    3
 -0.02017822172420921    3    3   13    4
 0.03913177412093714    3    3   13    5
 0.31094770078047    3    3   13   12
 0.281838473145478    3    3   13   13
 -0.03366522354865287    3    3   14    2
 -0.002813809492878423    3    3   14    3
 -0.1758835835800469    3    3   14    4
 -0.01044876291950866    3    3   14    5
 -0.006460448868187566    3    3   14   12
 0.02269649067132178    3    3   14   13
 0.2030546523142101    3    3   14   14
 0.03354293874058132    3    3   15    2
 0.07343759940766544    3    3   15    3
 -0.0142561928528362    3    3   15    4
 0.2330330356125766    3    3   15    5
 0.01111792920903763    3    3   15   12
 -0.01280314492153244    3    3   15   13
 -0.0002947812238403196    3    3   15   14
 0.2516861874925752    3    3   15   15
 -0.005424050688763629    3    3   16    6
 -0.3951900748172008    3    3   16    7
 -0.03647197576714684    3    3   16    8
 0.1835386885211855    3    3   16    9
 0.08737149356107943    3    3   16   10
 -0.0289569923603121    3    3   16   11
 0.3750000000000004    3    3   16   16
 0.3750000000000005    4    1    4    1
 0.006358548079039759    4    1    6    2
 0.0176615156801018    4    1    6    3
 -0.2869787859136886    4    1    6    4
 0.118826509818569    4    1    6    5
 -0.01743961165090416    4    1    7    2
 -0.06509670745370617    4    1    7    3
 -0.04291934145281114    4    1    7    4
 0.01365533585050396    4    1    7    5
 -0.07596259888154072    4    1    8    2
 -0.161177770981524    4    1    8    3
 0.0001286016165241226    4    1    8    4
 0.1969083198282878    4    1    8    5
 -0.1236802829756553    4    1    9    2
 -0.1780926266604467    4    1    9    3
 0.2113826740619207    4    1    9    4
 -0.03582782211301797    4    1    9    5
 0.1922138656949153    4    1   10    2
 -0.1084677700351427    4    1   10    3
 0.08045710921850685    4    1   10    4
 0.2096878900770008    4    1   10    5
 -0.2320128796712369    4    1   11    2
 -0.0273798393258705    4    1   11    3
 -0.0341412614978176    4    1   11    4
 0.008672808205195053    4    1   11    5
 -0.05151934635265579    4    1   12    6
 -0.09796264932077588    4    1   12    7
 -0.1114490317478852    4    1   12    8
 -0.0507716507657833    4    1   12    9
 -0.2693688519865434    4    1   12   10
 -0.008487915058998256    4    1   12   11
 0.07843666788072179    4    1   13    6
 0.003467210624189826    4    1   13    7
 -0.1111658979178049    4    1   13    8
 -0.1573851300432797    4    1   13    9
 0.1788085662881925    4    1   13   10
 0.05722040891379388    4    1   13   11
 0.07573877088831663    4    1   14    6
 -0.1044538893739909    4    1   14    7
 -0.2753885519377731    4    1   14    8
 0.1250876243859717    4    1   14    9
 -0.05314903709254932    4    1   14   10
 0.1521462169694114    4    1   14   11
 -0.07634213824258387    4    1   15    6
 0.109563680794766    4    1   15    7
 0.03369883290234733    4    1   15    8
 0.2743609794086114    4    1   15    9
 0.005693334759245335    4    1   15   10
 0.1227783698328343    4    1   15   11
 -0.004848730229317325    4    1   16   12
 0.03295634104780756    4    1   16   13
 -0.3724061152347405    4    1   16   14
 -0.02879331060634327    4    1   16   15
 0.0209085032093365    4    2    2    2
 0.09356106259908577    4    2    3    2
 0.02487840150492619    4    2    3    3
 0.299167590700551    4    2    4    2
 0.05605615388385882    4    2    4    3
 -0.01024993396411489    4    2    4    4
 0.03590762176452077    4    2    5    2
 -0.05099620903524529    4    2    5    3
 0.0754231053811272    4    2    5    4
 -0.03553697075014787    4    2    5    5
 0.006358548079039759    4    2    6    1
 -0.01802150682724141    4    2    6    6
 -0.01743961165090415    4    2    7    1
 0.01828930662719361    4    2    7    6
 -0.008224723951571158    4    2    7    7
 -0.07596259888154072    4    2    8    1
 -0.06037518198594805    4    2    8    6
 0.1057309555755516    4    2    8    7
 0.08088680502341114    4    2    8    8
 -0.1236802829756553    4    2    9    1
 0.1541018566560936    4    2    9    6
 0.05835920438648234    4    2    9    7
 0.1594504635647419    4    2    9    8
 -0.1878591818617702    4    2    9    9
 0.1922138656949153    4    2   10    1
 -0.008087692454380865    4    2   10    6
 -0.07460534470382343    4    2   10    7
 -0.1659971660263349    4    2   10    8
 0.0703064848753879    4    2   10    9
 0.3132929856238401    4    2   10   10
 -0.2320128796712369    4    2   11    1
 0.08952007728653932    4    2   11    6
 0.05561726021376419    4    2   11    7
 0.1301311312999314    4    2   11    8
 0.05833629313674333    4    2   11    9
 -0.02574602131600055    4    2   11   10
 -0.1800743780066682    4    2   11   11
 -0.04407832209341857    4    2   12    2
 0.04722479637589811    4    2   12    3
 -0.08981565379993069    4    2   12    4
 -0.07115883641305756    4    2   12    5
 0.08576116909716343    4    2   12   12
 0.2519982475109451    4    2   13    2
 -0.04542193989735568    4    2   13    3
 0.1318447422597204    4    2   13    4
 0.02519064630818732    4    2   13    5
 -0.05235009106959486    4    2   13   12
 -0.09818856471204364    4    2   13   13
 0.2003145194622263    4    2   14    2
 0.04459218299391073    4    2   14    3
 -0.100704753596858    4    2   14    4
 0.1344463900185538    4    2   14    5
 -0.1515752536746164    4    2   14   12
 0.2416142778106151    4    2   14   13
 0.05626833531749299    4    2   14   14
 -0.07025215766586772    4    2   15    2
 -0.03844253790671082    4    2   15    3
 -0.1767490478968929    4    2   15    4
 0.1245120010436667    4    2   15    5
 -0.02781068339227367    4    2   15   12
 -0.025139292596396    4    2   15   13
 -0.1250892345766939    4    2   15   14
 -0.04384093970261303    4    2   15   15
 -0.1096421362250744    4    2   16    6
 -0.00808592172812422    4    2   16    7
 0.09746124733604783    4    2   16    8
 0.1604093711028413    4    2   16    9
 -0.2496341265789517    4    2   16   10
 -0.05053719544822603    4    2   16   11
 0.09356106259908577    4    3    2    2
 0.02487840150492619    4    3    3    2
 0.01740880649988456    4    3    3    3
 0.05605615388385883    4    3    4    2
 0.1993591485992766    4    3    4    3
 -0.1272885782797784    4    3    4    4
 -0.05099620903524527    4    3    5    2
 -0.009822774884082879    4    3    5    3
 -0.1256764592049825    4    3    5    4
 0.01631870918080724    4    3    5    5
 0.01766151568010179    4    3    6    1
 0.0101996329158987    4    3    6    6
 -0.06509670745370617    4    3    7    1
 0.07961780949185572    4    3    7    6
 0.02329555315644923    4    3    7    7
 -0.161177770981524    4    3    8    1
 0.1262505613133871    4    3    8    6
 -0.03023608283533789    4    3    8    7
 -0.1413867313365854    4    3    8    8
 -0.1780926266604467    4    3    9    1
 0.1578875037515192    4    3    9    6
 -0.0033739356793432    4    3    9    7
 -0.02923607846792025    4    3    9    8
 -0.0404320986203596    4    3    9    9
 -0.1084677700351427    4    3   10    1
 0.1411933176545394    4    3   10    6
 -0.0418120442087252    4    3   10    7
 -0.1469959466384808    4    3   10    8
 -0.006120980881996166    4    3   10    9
 -0.003226684272055242    4    3   10   10
 -0.02737983932587052    4    3   11    1
 0.07539965891357867    4    3   11    6
 0.06372126877364161    4    3   11    7
 0.09642669349909819    4    3   11    8
 0.04160036611571444    4    3   11    9
 0.1174915686827998    4    3   11   10
 0.1515503281566515    4    3   11   11
 0.04722479637589811    4    3   12    2
 -0.0170714759316871    4    3   12    3
 0.1651267620884284    4    3   12    4
 -0.02344597106877033    4    3   12    5
 0.04095132551219639    4    3   12   12
 -0.04542193989735568    4    3   13    2
 -0.02017822172420921    4    3   13    3
 0.06971881929482829    4    3   13    4
 0.03641506957059466    4    3   13    5
 -0.030834040126472    4    3   13   12
 0.07774255165723395    4    3   13   13
 0.04459218299391072    4    3   14    2
 -0.1758835835800469    4    3   14    3
 0.08492216984652078    4    3   14    4
 0.1856181279118395    4    3   14    5
 -0.2209233201457303    4    3   14   12
 0.01777271720978355    4    3   14   13
 -0.1359791803041522    4    3   14   14
 -0.03844253790671082    4    3   15    2
 -0.0142561928528362    4    3   15    3
 -0.1780077822930073    4    3   15    4
 0.05066457270197657    4    3   15    5
 -0.03221807707965534    4    3   15   12
 0.02215337923500682    4    3   15   13
 0.09950962687458681    4    3   15   14
 0.01728530313472165    4    3   15   15
 -0.02238801253087511    4    3   16    6
 -0.08848673063642971    4    3   16    7
 -0.146305584937545    4    3   16    8
 -0.09092731747400068    4    3   16    9
 -0.1908156298039624    4    3   16   10
 0.01857014530111156    4    3   16   11
 0.3750000000000005    4    4    1    1
 0.299167590700551    4    4    2    2
 0.05605615388385882    4    4    3    2
 0.1993591485992766    4    4    3    3
 -0.01024993396411488    4    4    4    2
 -0.1272885782797784    4    4    4    3
 0.7390547120737142    4    4    4    4
 0.07542310538112723    4    4    5    2
 -0.1256764592049825    4    4    5    3
 -0.06842678079752705    4    4    5    4
 0.2624185486264594    4    4    5    5
 -0.2869787859136886    4    4    6    1
 0.3125332284637527    4    4    6    6
 -0.04291934145281114    4    4    7    1
 0.004592940053792418    4    4    7    6
 0.1042500714930396    4    4    7    7
 0.0001286016165241365    4    4    8    1
 -0.01700417560237969    4    4    8    6
 0.1533072280390009    4    4    8    7
 0.4593992070884322    4    4    8    8
 0.2113826740619207    4    4    9    1
 -0.2401381727293167    4    4    9    6
 0.06829515074014911    4    4    9    7
 0.07739811170694748    4    4    9    8
 0.5633300380679643    4    4    9    9
 0.08045710921850685    4    4   10    1
 0.06553670322768977    4    4   10    6
 0.09680643104339237    4    4   10    7
 0.1844083831058271    4    4   10    8
 -0.03870118086401312    4    4   10    9
 0.5507816025964151    4    4   10   10
 -0.03414126149781758    4    4   11    1
 0.04252057872782893    4    4   11    6
 0.01600528623955018    4    4   11    7
 -0.05182972418556472    4    4   11    8
 0.1871639299535783    4    4   11    9
 -0.09979763755109851    4    4   11   10
 0.2597058522903965    4    4   11   11
 -0.08981565379993067    4    4   12    2
 0.1651267620884284    4    4   12    3
 -0.03503994395899799    4    4   12    4
 -0.2243807498488961    4    4   12    5
 0.2664125445786869    4    4   12   12
 0.1318447422597203    4    4   13    2
 0.06971881929482829    4    4   13    3
 -0.1160224332618226    4    4   13    4
 0.08295261412646905    4    4   13    5
 -0.08749750681915548    4    4   13   12
 0.2123335131357737    4    4   13   13
 -0.100704753596858    4    4   14    2
 0.08492216984652078    4    4   14    3
 -0.0008455170983182137    4    4   14    4
 -0.1625591142490085    4    4   14    5
 0.1213398340822237    4    4   14   12
 0.009159038640361541    4    4   14   13
 0.7274462690136938    4    4   14   14
 -0.1767490478968929    4    4   15    2
 -0.1780077822930073    4    4   15    3
 0.1905918004156904    4    4   15    4
 -0.02269562712730097    4    4   15    5
 -0.07179104515631717    4    4   15   12
 -0.1211736496983816    4    4   15   13
 0.09843453924248399    4    4   15   14
 0.2938076732718464    4    4   15   15
 -0.06179373213604122    4    4   16    6
 0.09689020561480091    4    4   16    7
 0.2625675863707659    4    4   16    8
 -0.1584635123829179    4    4   16    9
 0.07154151857152362    4    4   16   10
 -0.1553825238031714    4    4   16   11
 0.3750000000000006    4    4   16   16
 0.3750000000000004    5    1    5    1
 0.04186820883268751    5    1    6    2
 0.2497097056503447    5    1    6    3
 0.118826509818569    5    1    6    4
 0.1840882463200444    5    1    6    5
 0.100497412320376    5    1    7    2
 0.002963778112039858    5    1    7    3
 0.01365533585050395    5    1    7    4
 -0.2435798064740233    5    1    7    5
 -0.1640721772370626    5    1    8    2
 -0.09837276542524785    5    1    8    3
 0.1969083198282878    5    1    8    4
 0.157847936716523    5    1    8    5
 0.1721823647215286    5    1    9    2
 0.1256974677702588    5    1    9    3
 -0.03582782211301799    5    1    9    4
 0.03890701156127205    5    1    9    5
 0.09079699614588159    5    1   10    2
 -0.0008746169842443179    5    1   10    3
 0.2096878900770008    5    1   10    4
 -0.149536359701069    5    1   10    5
 -0.02728963140761517    5    1   11    2
 0.05352255211811261    5    1   11    3
 0.008672808205195066    5    1   11    4
 -0.1155138295406223    5    1   11    5
 0.3281408149913842    5    1   12    6
 -0.0104043737362211    5    1   12    7
 0.04123711827365582    5    1   12    8
 0.06781186835753816    5    1   12    9
 -0.04205521101514949    5    1   12   10
 0.04029710174079773    5    1   12   11
 -0.08388680936013419    5    1   13    6
 0.101080104286623    5    1   13    7
 -0.2171686986911023    5    1   13    8
 0.04276946672071465    5    1   13    9
 0.04370430595947153    5    1   13   10
 0.03389830843966458    5    1   13   11
 0.04599611914009569    5    1   14    6
 -0.129855681433667    5    1   14    7
 -0.04477322090400407    5    1   14    8
 -0.2481025444796905    5    1   14    9
 -0.05576880255287002    5    1   14   10
 -0.105568919696469    5    1   14   11
 0.0806022566590003    5    1   15    6
 0.1891424621574592    5    1   15    7
 -0.2452344448560289    5    1   15    8
 0.07868965380013127    5    1   15    9
 0.003150114796606821    5    1   15   10
 -0.1723019659545638    5    1   15   11
 -0.03366300195467598    5    1   16   12
 0.05550867896814041    5    1   16   13
 -0.0231493773516766    5    1   16   14
 0.3686118489506832    5    1   16   15
 0.01106588114588852    5    2    2    2
 0.0518389602725218    5    2    3    2
 0.03723413598753957    5    2    3    3
 0.03590762176452077    5    2    4    2
 -0.05099620903524527    5    2    4    3
 0.07542310538112723    5    2    4    4
 0.2064211769328946    5    2    5    2
 0.1253222609727097    5    2    5    3
 -0.0355369707501479    5    2    5    4
 -0.1237231225145553    5    2    5    5
 0.0418682088326875    5    2    6    1
 0.1364477800141852    5    2    6    6
 0.100497412320376    5    2    7    1
 0.05387236263338734    5    2    7    6
 -0.1343244262800928    5    2    7    7
 -0.1640721772370626    5    2    8    1
 -0.1446076918817207    5    2    8    6
 0.1800301007870339    5    2    8    7
 -0.1085544548572318    5    2    8    8
 0.1721823647215286    5    2    9    1
 0.01453641753416186    5    2    9    6
 -0.07291786829105278    5    2    9    7
 -0.005120680537260433    5    2    9    8
 0.09709666910328651    5    2    9    9
 0.09079699614588155    5    2   10    1
 -0.02335333376322747    5    2   10    6
 -0.09507166784110152    5    2   10    7
 -0.003314475881555073    5    2   10    8
 -0.1338465510621882    5    2   10    9
 0.1057541233210698    5    2   10   10
 -0.02728963140761516    5    2   11    1
 -0.1280943169477402    5    2   11    6
 -0.01980238231431594    5    2   11    7
 0.002263976821189399    5    2   11    8
 0.02334278583845994    5    2   11    9
 -0.09486787721866559    5    2   11   10
 -0.09641969130121698    5    2   11   11
 -0.01342498097416793    5    2   12    2
 0.01564877551982908    5    2   12    3
 -0.07115883641305756    5    2   12    4
 0.03382671924631969    5    2   12    5
 0.03301158851045726    5    2   12   12
 0.09959655302162614    5    2   13    2
 -0.004422769765367172    5    2   13    3
 0.02519064630818732    5    2   13    4
 0.1404926265659254    5    2   13    5
 0.01031724484309997    5    2   13   12
 -0.07473397806707029    5    2   13   13
 0.05591077991480995    5    2   14    2
 0.04413551279687894    5    2   14    3
 0.1344463900185538    5    2   14    4
 -0.1298131483937972    5    2   14    5
 0.0183117451724666    5    2   14   12
 0.05506932184948615    5    2   14   13
 0.08042099059263066    5    2   14   14
 -0.08380587545256084    5    2   15    2
 0.09223415507322191    5    2   15    3
 0.1245120010436667    5    2   15    4
 0.2164165285203848    5    2   15    5
 0.2047658233456217    5    2   15   12
 -0.1553561787641213    5    2   15   13
 0.02342938210837807    5    2   15   14
 -0.03869860103601785    5    2   15   15
 0.1968176339934052    5    2   16    6
 -0.05295554497553829    5    2   16    7
 0.1784138501352128    5    2   16    8
 0.02081697116863319    5    2   16    9
 -0.04847465824355599    5    2   16   10
 -0.03538120765154523    5    2   16   11
 0.0518389602725218    5    3    2    2
 0.03723413598753957    5    3    3    2
 -0.002315760165128529    5    3    3    3
 -0.05099620903524528    5    3    4    2
 -0.009822774884082869    5    3    4    3
 -0.1256764592049825    5    3    4    4
 0.1253222609727097    5    3    5    2
 0.2418832106614678    5    3    5    3
 0.01631870918080722    5    3    5    4
 0.07615325909758917    5    3    5    5
 0.2497097056503448    5    3    6    1