 &FCI NORB=  14,NELEC= 8,MS2=2,
  ORBSYM=1,1,1,1,1,1,1,1,1,1,1,1,1,1
  ISYM=1,
 &END
 0.1538881921428569    1    1    1    1
 0.1538881921428572    1    1    2    2
 0.1538881921428569    1    1    3    3
 0.153888192142857    1    1    4    4
 0.1538881921428569    1    1    5    5
 0.1538881921428573    1    1    6    6
 0.153888192142857    1    1    7    7
 0.1538881921428571    1    1    8    8
 0.1538881921428568    1    1    9    9
 0.1538881921428567    1    1   10   10
 0.1538881921428569    1    1   11   11
 0.1538881921428571    1    1   12   12
 0.1538881921428569    1    1   13   13
 0.1538881921428569    1    1   14   14
 0.1538881921428572    2    1    2    1
 0.1081985796088033    2    1    4    2
 0.01156958128610986    2    1    4    3
 -0.01156958128610982    2    1    5    2
 0.1081985796088033    2    1    5    3
 0.01950198609500831    2    1    6    4
 0.1070535397772936    2    1    6    5
 0.1070535397772935    2    1    7    4
 -0.01950198609500831    2    1    7    5
 0.006488943444905684    2    1    8    6
 0.1086217356400977    2    1    8    7
 -0.1086217356400977    2    1    9    6
 0.006488943444905688    2    1    9    7
 -0.05711095914394092    2    1   10    8
 0.09262357251886555    2    1   10    9
 -0.09262357251886567    2    1   11    8
 -0.05711095914394079    2    1   11    9
 -0.04718763397481218    2    1   12   10
 -0.09805159376755496    2    1   12   11
 0.09805159376755473    2    1   13   10
 -0.04718763397481213    2    1   13   11
 0.1531507982540623    2    1   14   12
 -0.01504688257216135    2    1   14   13
 0.1538881921428572    2    2    1    1
 0.2308322882142859    2    2    2    2
 0.07694409607142864    2    2    3    3
 0.1081985796088033    2    2    4    1
 0.1538881921428569    2    2    4    4
 -0.01156958128610982    2    2    5    1
 0.1538881921428571    2    2    5    5
 0.005663349165882042    2    2    6    2
 0.07673539207220199    2    2    6    3
 0.1538881921428575    2    2    6    6
 0.07673539207220184    2    2    7    2
 -0.005663349165882015    2    2    7    3
 0.1538881921428571    2    2    7    7
 0.07638590341582169    2    2    8    4
 -0.009251360959230792    2    2    8    5
 0.1538881921428571    2    2    8    8
 -0.009251360959230796    2    2    9    4
 -0.07638590341582173    2    2    9    5
 0.1538881921428569    2    2    9    9
 -0.06778637689414947    2    2   10    6
 -0.03640605757032134    2    2   10    7
 0.1538881921428569    2    2   10   10
 0.03640605757032141    2    2   11    6
 -0.06778637689414942    2    2   11    7
 0.153888192142857    2    2   11   11
 0.07652841831439279    2    2   12    8
 0.007987184143773602    2    2   12    9
 0.2293610338445533    2    2   12   12
 -0.007987184143773585    2    2   13    8
 0.07652841831439272    2    2   13    9
 -0.01497478165850688    2    2   13   12
 0.07841535044116107    2    2   13   13
 -0.05654881318196429    2    2   14   10
 -0.09296784158089159    2    2   14   11
 0.1538881921428571    2    2   14   14
 0.1538881921428569    3    1    3    1
 0.01156958128610987    3    1    4    2
 -0.1081985796088032    3    1    4    3
 0.1081985796088033    3    1    5    2
 0.01156958128610984    3    1    5    3
 0.1070535397772935    3    1    6    4
 -0.01950198609500827    3    1    6    5
 -0.01950198609500828    3    1    7    4
 -0.1070535397772934    3    1    7    5
 -0.1086217356400978    3    1    8    6
 0.006488943444905687    3    1    8    7
 -0.006488943444905674    3    1    9    6
 -0.1086217356400976    3    1    9    7
 -0.09262357251886554    3    1   10    8
 -0.05711095914394083    3    1   10    9
 0.05711095914394079    3    1   11    8
 -0.09262357251886555    3    1   11    9
 0.09805159376755479    3    1   12   10
 -0.04718763397481219    3    1   12   11
 0.04718763397481206    3    1   13   10
 0.09805159376755469    3    1   13   11
 0.01504688257216129    3    1   14   12
 0.1531507982540621    3    1   14   13
 0.07694409607142866    3    2    3    2
 0.01156958128610986    3    2    4    1
 0.1081985796088033    3    2    5    1
 0.07673539207220201    3    2    6    2
 -0.005663349165882005    3    2    6    3
 -0.005663349165882016    3    2    7    2
 -0.07673539207220181    3    2    7    3
 -0.009251360959230777    3    2    8    4
 -0.07638590341582178    3    2    8    5
 -0.07638590341582174    3    2    9    4
 0.009251360959230792    3    2    9    5
 0.03640605757032141    3    2   10    6
 -0.0677863768941494    3    2   10    7
 0.06778637689414953    3    2   11    6
 0.03640605757032132    3    2   11    7
 -0.007987184143773588    3    2   12    8
 0.07652841831439279    3    2   12    9
 0.01497478165850698    3    2   12   12
 -0.07652841831439271    3    2   13    8
 -0.007987184143773599    3    2   13    9
 0.07547284170169612    3    2   13   12
 -0.01497478165850696    3    2   13   13
 0.09296784158089152    3    2   14   10
 -0.05654881318196435    3    2   14   11
 0.1538881921428569    3    3    1    1
 0.07694409607142866    3    3    2    2
 0.2308322882142857    3    3    3    3
 -0.1081985796088032    3    3    4    1
 0.1538881921428572    3    3    4    4
 0.01156958128610983    3    3    5    1
 0.1538881921428571    3    3    5    5
 -0.005663349165882001    3    3    6    2
 -0.07673539207220176    3    3    6    3
 0.1538881921428575    3    3    6    6
 -0.07673539207220181    3    3    7    2
 0.005663349165881984    3    3    7    3
 0.1538881921428572    3    3    7    7
 -0.0763859034158217    3    3    8    4
 0.009251360959230792    3    3    8    5
 0.1538881921428572    3    3    8    8
 0.009251360959230768    3    3    9    4
 0.07638590341582165    3    3    9    5
 0.1538881921428571    3    3    9    9
 0.06778637689414936    3    3   10    6
 0.0364060575703213    3    3   10    7
 0.153888192142857    3    3   10   10
 -0.03640605757032128    3    3   11    6
 0.06778637689414936    3    3   11    7
 0.153888192142857    3    3   11   11
 -0.07652841831439273    3    3   12    8
 -0.007987184143773564    3    3   12    9
 0.07841535044116117    3    3   12   12
 0.007987184143773562    3    3   13    8
 -0.07652841831439255    3    3   13    9
 0.01497478165850688    3    3   13   12
 0.2293610338445532    3    3   13   13
 0.05654881318196422    3    3   14   10
 0.0929678415808914    3    3   14   11
 0.153888192142857    3    3   14   14
 0.1081985796088033    4    1    2    2
 0.01156958128610987    4    1    3    2
 -0.1081985796088032    4    1    3    3
 0.153888192142857    4    1    4    1
 0.01950198609500831    4    1    6    2
 0.1070535397772935    4    1    6    3
 0.1070535397772935    4    1    7    2
 -0.01950198609500828    4    1    7    3
 0.1060225838708813    4    1    8    4
 -0.02449488823898531    4    1    8    5
 -0.02449488823898531    4    1    9    4
 -0.1060225838708812    4    1    9    5
 -0.08984687854399778    4    1   10    6
 -0.06138669445733776    4    1   10    7
 0.06138669445733777    4    1   11    6
 -0.0898468785439978    4    1   11    7
 0.1064130739482101    4    1   12    8
 0.02273863525788713    4    1   12    9
 0.1083813658303541    4    1   12   12
 -0.02273863525788713    4    1   13    8
 0.1064130739482099    4    1   13    9
 -0.009709139057887187    4    1   13   12
 -0.1083813658303541    4    1   13   13
 -0.0655398207551413    4    1   14   10
 -0.1392340029460505    4    1   14   11
 0.1081985796088033    4    2    2    1
 0.01156958128610987    4    2    3    1
 0.153888192142857    4    2    4    2
 0.01950198609500831    4    2    6    1
 0.0217602908892523    4    2    6    4
 0.07380300576984894    4    2    6    5
 0.1070535397772935    4    2    7    1
 0.07380300576984869    4    2    7    4
 -0.02176029088925225    4    2    7    5
 0.07638590341582169    4    2    8    2
 -0.009251360959230782    4    2    8    3
 -0.003604003194156298    4    2    8    6
 0.07685964533632529    4    2    8    7
 -0.009251360959230792    4    2    9    2
 -0.07638590341582174    4    2    9    3
 -0.07685964533632542    4    2    9    6
 -0.003604003194156295    4    2    9    7
 -0.0540902807227921    4    2   10    4
 -0.05472326243544661    4    2   10    5
 -0.04711823896148263    4    2   10    8
 0.06082980747477192    4    2   10    9
 -0.05472326243544653    4    2   11    4
 0.05409028072279213    4    2   11    5
 -0.060829807474772    4    2   11    8
 -0.04711823896148261    4    2   11    9
 -0.01156295089553384    4    2   12    6
 0.07607031015341462    4    2   12    7
 -0.06522577025766915    4    2   12   10
 -0.1385668282820611    4    2   12   11
 -0.07607031015341474    4    2   13    6
 -0.01156295089553375    4    2   13    7
 0.00640835383775012    4    2   13   10
 0.01361402498273764    4    2   13   11
 0.1081265077113059    4    2   14    8
 0.01222481781685722    4    2   14    9
 0.1088113697022356    4    2   14   12
 0.000934699963536843    4    2   14   13
 0.01156958128610987    4    3    2    1
 -0.1081985796088032    4    3    3    1
 0.1538881921428572    4    3    4    3
 0.1070535397772935    4    3    6    1
 -0.07380300576984906    4    3    6    4
 0.02176029088925235    4    3    6    5
 -0.01950198609500828    4    3    7    1
 0.02176029088925233    4    3    7    4
 0.07380300576984894    4    3    7    5
 -0.009251360959230778    4    3    8    2
 -0.0763859034158217    4    3    8    3
 0.07685964533632562    4    3    8    6
 0.003604003194156339    4    3    8    7
 -0.07638590341582174    4    3    9    2
 0.009251360959230782    4    3    9    3
 -0.003604003194156293    4    3    9    6
 0.07685964533632549    4    3    9    7
 -0.05472326243544655    4    3   10    4
 0.05409028072279212    4    3   10    5
 0.06082980747477211    4    3   10    8
 0.04711823896148272    4    3   10    9
 0.05409028072279211    4    3   11    4
 0.05472326243544663    4    3   11    5
 -0.04711823896148273    4    3   11    8
 0.06082980747477205    4    3   11    9
 -0.0760703101534148    4    3   12    6
 -0.01156295089553374    4    3   12    7
 -0.006408353837750192    4    3   12   10
 -0.01361402498273765    4    3   12   11
 0.01156295089553377    4    3   13    6
 -0.0760703101534146    4    3   13    7
 -0.06522577025766929    4    3   13   10
 -0.1385668282820612    4    3   13   11
 -0.01222481781685722    4    3   14    8
 0.1081265077113058    4    3   14    9
 0.0009346999635368499    4    3   14   12
 -0.1088113697022356    4    3   14   13
 0.153888192142857    4    4    1    1
 0.153888192142857    4    4    2    2
 0.1538881921428572    4    4    3    3
 0.2308322882142854    4    4    4    4
 0.07694409607142849    4    4    5    5
 0.02176029088925231    4    4    6    2
 -0.07380300576984906    4    4    6    3
 0.1538881921428574    4    4    6    6
 0.07380300576984869    4    4    7    2
 0.02176029088925233    4    4    7    3
 0.153888192142857    4    4    7    7
 0.1060225838708813    4    4    8    1
 0.153888192142857    4    4    8    8
 -0.02449488823898531    4    4    9    1
 0.1538881921428569    4    4    9    9
 -0.05409028072279209    4    4   10    2
 -0.05472326243544654    4    4   10    3
 0.1048570115771775    4    4   10   10
 -0.05472326243544653    4    4   11    2
 0.05409028072279209    4    4   11    3
 0.05929871206514495    4    4   11   10
 0.2029193727085362    4    4   11   11
 0.06969481270094445    4    4   12    4
 -0.03260409487824303    4    4   12    5
 0.07637991391508089    4    4   12    8
 0.009300681188709886    4    4   12    9
 0.1538881921428568    4    4   12   12
 -0.03260409487824302    4    4   13    4
 -0.06969481270094459    4    4   13    5
 0.009300681188709949    4    4   13    8
 -0.07637991391508123    4    4   13    9
 0.1538881921428572    4    4   13   13
 -0.01727596409262327    4    4   14    6
 0.1074352312101054    4    4   14    7
 0.1538881921428568    4    4   14   14
 -0.01156958128610981    5    1    2    2
 0.1081985796088033    5    1    3    2
 0.01156958128610984    5    1    3    3
 0.1538881921428569    5    1    5    1
 0.1070535397772936    5    1    6    2
 -0.01950198609500828    5    1    6    3
 -0.01950198609500831    5    1    7    2
 -0.1070535397772934    5    1    7    3
 -0.02449488823898531    5    1    8    4
 -0.1060225838708813    5    1    8    5
 -0.1060225838708812    5    1    9    4
 0.02449488823898529    5    1    9    5
 0.0613866944573378    5    1   10    6
 -0.08984687854399775    5    1   10    7
 0.08984687854399787    5    1   11    6
 0.06138669445733771    5    1   11    7
 -0.02273863525788717    5    1   12    8
 0.10641307394821    5    1   12    9
 0.009709139057887306    5    1   12   12
 -0.10641307394821    5    1   13    8
 -0.02273863525788714    5    1   13    9
 0.1083813658303541    5    1   13   12
 -0.009709139057887263    5    1   13   13
 0.1392340029460504    5    1   14   10
 -0.06553982075514134    5    1   14   11
 -0.01156958128610982    5    2    2    1
 0.1081985796088033    5    2    3    1
 0.1538881921428571    5    2    5    2
 0.1070535397772936    5    2    6    1
 0.07380300576984893    5    2    6    4
 -0.02176029088925222    5    2    6    5
 -0.01950198609500831    5    2    7    1
 -0.02176029088925225    5    2    7    4
 -0.07380300576984886    5    2    7    5
 -0.009251360959230785    5    2    8    2
 -0.0763859034158218    5    2    8    3
 -0.07685964533632554    5    2    8    6
 -0.003604003194156222    5    2    8    7
 -0.07638590341582174    5    2    9    2
 0.009251360959230785    5    2    9    3
 0.003604003194156297    5    2    9    6
 -0.07685964533632539    5    2    9    7
 -0.0547232624354466    5    2   10    4
 0.05409028072279214    5    2   10    5
 -0.060829807474772    5    2   10    8
 -0.04711823896148263    5    2   10    9
 0.05409028072279214    5    2   11    4
 0.05472326243544665    5    2   11    5
 0.04711823896148264    5    2   11    8
 -0.06082980747477207    5    2   11    9
 -0.07607031015341481    5    2   12    6
 -0.01156295089553376    5    2   12    7
 0.1385668282820611    5    2   12   10
 -0.06522577025766929    5    2   12   11
 0.01156295089553378    5    2   13    6
 -0.07607031015341464    5    2   13    7
 -0.01361402498273763    5    2   13   10
 0.006408353837750104    5    2   13   11
 -0.01222481781685723    5    2   14    8
 0.1081265077113059    5    2   14    9
 -0.0009346999635367267    5    2   14   12
 0.1088113697022357    5    2   14   13
 0.1081985796088033    5    3    2    1
 0.01156958128610984    5    3    3    1
 0.1538881921428571    5    3    5    3
 -0.01950198609500828    5    3    6    1
 0.02176029088925235    5    3    6    4
 0.07380300576984902    5    3    6    5
 -0.1070535397772934    5    3    7    1
 0.07380300576984894    5    3    7    4
 -0.02176029088925238    5    3    7    5
 -0.0763859034158218    5    3    8    2
 0.009251360959230778    5    3    8    3
 -0.003604003194156365    5    3    8    6
 0.07685964533632553    5    3    8    7
 0.009251360959230783    5    3    9    2
 0.07638590341582162    5    3    9    3
 -0.07685964533632555    5    3    9    6
 -0.003604003194156318    5    3    9    7
 0.0540902807227921    5    3   10    4
 0.05472326243544656    5    3   10    5
 -0.04711823896148279    5    3   10    8
 0.06082980747477207    5    3   10    9
 0.05472326243544663    5    3   11    4
 -0.05409028072279208    5    3   11    5
 -0.06082980747477203    5    3   11    8
 -0.04711823896148273    5    3   11    9
 0.01156295089553377    5    3   12    6
 -0.07607031015341469    5    3   12    7
 0.01361402498273765    5    3   12   10
 -0.006408353837750263    5    3   12   11
 0.07607031015341467    5    3   13    6
 0.01156295089553377    5    3   13    7
 0.1385668282820611    5    3   13   10
 -0.06522577025766924    5    3   13   11
 -0.1081265077113059    5    3   14    8
 -0.01222481781685721    5    3   14    9
 0.1088113697022358    5    3   14   12
 0.0009346999635367554    5    3   14   13
 0.07694409607142849    5    4    5    4
 0.07380300576984893    5    4    6    2
 0.02176029088925236    5    4    6    3
 -0.02176029088925225    5    4    7    2
 0.07380300576984894    5    4    7    3
 -0.02449488823898531    5    4    8    1
 -0.1060225838708812    5    4    9    1
 -0.05472326243544661    5    4   10    2
 0.05409028072279212    5    4   10    3
 -0.05929871206514487    5    4   10   10
 0.05409028072279214    5    4   11    2
 0.05472326243544664    5    4   11    3
 -0.0490311805656793    5    4   11   10
 0.0592987120651449    5    4   11   11
 -0.03260409487824303    5    4   12    4
 -0.06969481270094463    5    4   12    5
 -0.009300681188709862    5    4   12    8
 0.07637991391508098    5    4   12    9
 -0.06969481270094459    5    4   13    4
 0.03260409487824301    5    4   13    5
 0.07637991391508119    5    4   13    8
 0.009300681188709952    5    4   13    9
 -0.1074352312101056    5    4   14    6
 -0.0172759640926232    5    4   14    7
 0.1538881921428569    5    5    1    1
 0.1538881921428571    5    5    2    2
 0.1538881921428571    5    5    3    3
 0.07694409607142849    5    5    4    4
 0.2308322882142854    5    5    5    5
 -0.02176029088925222    5    5    6    2
 0.07380300576984902    5    5    6    3
 0.1538881921428573    5    5    6    6
 -0.07380300576984886    5    5    7    2
 -0.02176029088925238    5    5    7    3
 0.1538881921428571    5    5    7    7
 -0.1060225838708813    5    5    8    1
 0.1538881921428571    5    5    8    8
 0.02449488823898529    5    5    9    1
 0.1538881921428569    5    5    9    9
 0.05409028072279214    5    5   10    2
 0.05472326243544656    5    5   10    3
 0.202919372708536    5    5   10   10
 0.05472326243544665    5    5   11    2
 -0.05409028072279208    5    5   11    3
 -0.05929871206514482    5    5   11   10
 0.1048570115771776    5    5   11   11
 -0.06969481270094462    5    5   12    4
 0.03260409487824302    5    5   12    5
 -0.07637991391508107    5    5   12    8
 -0.00930068118870982    5    5   12    9
 0.1538881921428571    5    5   12   12
 0.03260409487824301    5    5   13    4
 0.06969481270094451    5    5   13    5
 -0.009300681188709983    5    5   13    8
 0.07637991391508109    5    5   13    9
 0.153888192142857    5    5   13   13
 0.01727596409262321    5    5   14    6
 -0.1074352312101056    5    5   14    7
 0.153888192142857    5    5   14   14
 0.01950198609500831    6    1    4    2
 0.1070535397772935    6    1    4    3
 0.1070535397772936    6    1    5    2
 -0.01950198609500829    6    1    5    3
 0.1538881921428573    6    1    6    1
 0.006488943444905674    6    1    8    2
 -0.1086217356400977    6    1    8    3
 -0.1086217356400977    6    1    9    2
 -0.006488943444905675    6    1    9    3
 -0.0898468785439978    6    1   10    4
 0.06138669445733783    6    1   10    5
 0.06138669445733778    6    1   11    4
 0.08984687854399787    6    1   11    5
 -0.1087685333737943    6    1   12    6
 0.003192802563940562    6    1   12    7
 0.08194585779922742    6    1   12   10
 -0.07159374434995874    6    1   12   11
 -0.003192802563940551    6    1   13    6
 -0.1087685333737941    6    1   13    7
 -0.07159374434995873    6    1   13   10
 -0.08194585779922746    6    1   13   11
 0.01039679027118568    6    1   14    8
 0.1535365833703937    6    1   14    9
 0.005663349165882042    6    2    2    2
 0.07673539207220199    6    2    3    2
 -0.005663349165882004    6    2    3    3
 0.01950198609500831    6    2    4    1
 0.0217602908892523    6    2    4    4
 0.1070535397772936    6    2    5    1
 0.07380300576984893    6    2    5    4
 -0.02176029088925222    6    2    5    5
 0.1538881921428575    6    2    6    2
 0.006488943444905681    6    2    8    1
 -0.003604003194156294    6    2    8    4
 -0.07685964533632554    6    2    8    5
 -0.1086217356400977    6    2    9    1
 -0.07685964533632542    6    2    9    4
 0.003604003194156283    6    2    9    5
 -0.06778637689414947    6    2   10    2
 0.0364060575703214    6    2   10    3
 0.03131799973558876    6    2   10    6
 -0.0702821229959005    6    2   10    7
 -0.0707442964225348    6    2   10   10
 0.03640605757032141    6    2   11    2
 0.06778637689414953    6    2   11    3
 0.07028212299590066    6    2   11    6
 0.03131799973558871    6    2   11    7
 -0.03025951823690771    6    2   11   10
 0.07074429642253491    6    2   11   11
 -0.01156295089553384    6    2   12    4
 -0.07607031015341481    6    2   12    5
 0.0103469714416686    6    2   12    8
 0.1528008743032638    6    2   12    9
 0.0204892237007461    6    2   12   12
 -0.07607031015341474    6    2   13    4
 0.01156295089553378    6    2   13    5
 -0.001016577556468322    6    2   13    8
 -0.01501250296293383    6    2   13    9
 0.07416593309862708    6    2   13   12
 -0.020489223700746    6    2   13   13
 -0.1079351557424574    6    2   14    6
 0.01381267516992834    6    2   14    7
 0.08855348815229588    6    2   14   10
 -0.0632381813191971    6    2   14   11
 0.07673539207220201    6    3    2    2
 -0.005663349165882001    6    3    3    2
 -0.07673539207220174    6    3    3    3
 0.1070535397772935    6    3    4    1
 -0.07380300576984906    6    3    4    4
 -0.01950198609500829    6    3    5    1
 0.02176029088925235    6    3    5    4
 0.07380300576984901    6    3    5    5
 0.1538881921428575    6    3    6    3
 -0.1086217356400978    6    3    8    1
 0.07685964533632562    6    3    8    4
 -0.003604003194156366    6    3    8    5
 -0.006488943444905675    6    3    9    1
 -0.003604003194156283    6    3    9    4
 -0.07685964533632557    6    3    9    5
 0.03640605757032141    6    3   10    2
 0.06778637689414936    6    3   10    3
 -0.0702821229959007    6    3   10    6
 -0.0313179997355888    6    3   10    7
 0.03025951823690768    6    3   10   10
 0.06778637689414953    6    3   11    2
 -0.03640605757032128    6    3   11    3
 0.0313179997355888    6    3   11    6
 -0.07028212299590056    6    3   11    7
 -0.07074429642253488    6    3   11   10
 -0.03025951823690765    6    3   11   11
 -0.07607031015341481    6    3   12    4
 0.01156295089553377    6    3   12    5
 0.001016577556468408    6    3   12    8
 0.01501250296293385    6    3   12    9
 0.07416593309862718    6    3   12   12
 0.01156295089553377    6    3   13    4
 0.07607031015341466    6    3   13    5
 0.01034697144166865    6    3   13    8
 0.1528008743032638    6    3   13    9
 -0.02048922370074598    6    3   13   12
 -0.07416593309862704    6    3   13   13
 -0.01381267516992835    6    3   14    6
 -0.1079351557424573    6    3   14    7
 -0.0632381813191971    6    3   14   10
 -0.08855348815229591    6    3   14   11
 0.01950198609500832    6    4    2    1
 0.1070535397772935    6    4    3    1
 0.02176029088925231    6    4    4    2
 -0.07380300576984906    6    4    4    3
 0.07380300576984893    6    4    5    2
 0.02176029088925236    6    4    5    3
 0.1538881921428574    6    4    6    4
 -0.003604003194156295    6    4    8    2
 0.07685964533632562    6    4    8    3
 -0.07474123811601299    6    4    8    6
 0.01827953076899692    6    4    8    7
 -0.07685964533632542    6    4    9    2
 -0.003604003194156285    6    4    9    3
 -0.01827953076899697    6    4    9    6
 -0.07474123811601278    6    4    9    7
 -0.0898468785439978    6    4   10    1
 -0.004427914587298203    6    4   10    8
 -0.06539007322999156    6    4   10    9
 0.06138669445733778    6    4   11    1
 -0.009406743344570071    6    4   11    8
 -0.1389158765441526    6    4   11    9
 -0.01156295089553383    6    4   12    2
 -0.0760703101534148    6    4   12    3
 -0.07640276150248039    6    4   12    6
 0.009111089673816991    6    4   12    7
 0.06223036009870575    6    4   12   10
 -0.04525236128904908    6    4   12   11
 -0.07607031015341474    6    4   13    2
 0.01156295089553378    6    4   13    3
 0.009111089673816988    6    4   13    6
 0.07640276150248049    6    4   13    7
 0.04525236128904919    6    4   13   10
 0.0622303600987059    6    4   13   11
 -0.01727596409262326    6    4   14    4
 -0.1074352312101056    6    4   14    5
 0.02987602047911047    6    4   14   12
 0.1046337003112775    6    4   14   13
 0.1070535397772936    6    5    2    1
 -0.01950198609500828    6    5    3    1
 0.07380300576984893    6    5    4    2
 0.02176029088925236    6    5    4    3
 -0.02176029088925222    6    5    5    2
 0.07380300576984901    6    5    5    3
 0.1538881921428574    6    5    6    5
 -0.07685964533632555    6    5    8    2
 -0.003604003194156361    6    5    8    3
 0.01827953076899698    6    5    8    6
 0.07474123811601284    6    5    8    7
 0.003604003194156286    6    5    9    2
 -0.07685964533632557    6    5    9    3
 -0.07474123811601277    6    5    9    6
 0.01827953076899696    6    5    9    7
 0.0613866944573378    6    5   10    1
 0.009406743344569996    6    5   10    8
 0.1389158765441524    6    5   10    9
 0.08984687854399787    6    5   11    1
 -0.004427914587298191    6    5   11    8
 -0.06539007322999146    6    5   11    9
 -0.07607031015341481    6    5   12    2
 0.01156295089553377    6    5   12    3
 -0.00911108967381705    6    5   12    6
 -0.07640276150248036    6    5   12    7
 -0.04525236128904904    6    5   12   10
 -0.06223036009870594    6    5   12   11
 0.01156295089553378    6    5   13    2
 0.07607031015341467    6    5   13    3
 -0.07640276150248054    6    5   13    6
 0.009111089673816951    6    5   13    7
 0.06223036009870579    6    5   13   10
 -0.04525236128904912    6    5   13   11
 -0.1074352312101056    6    5   14    4
 0.01727596409262322    6    5   14    5
 0.1046337003112776    6    5   14   12
 -0.02987602047911042    6    5   14   13
 0.1538881921428573    6    6    1    1
 0.1538881921428575    6    6    2    2
 0.1538881921428575    6    6    3    3
 0.1538881921428574    6    6    4    4
 0.1538881921428574    6    6    5    5
 0.2308322882142866    6    6    6    6
 0.07694409607142867    6    6    7    7
 -0.07474123811601298    6    6    8    4
 0.01827953076899698    6    6    8    5
 0.07764651024913692    6    6    8    8
 -0.01827953076899696    6    6    9    4
 -0.07474123811601277    6    6    9    5
 0.01037303534487259    6    6    9    8
 0.2301298740365776    6    6    9    9
 0.03131799973558877    6    6   10    2
 -0.0702821229959007    6    6   10    3
 -0.05643412894405041    6    6   10    6
 0.052302801173317    6    6   10    7
 0.1538881921428571    6    6   10   10
 0.07028212299590066    6    6   11    2
 0.03131799973558881    6    6   11    3
 0.05230280117331703    6    6   11    6
 0.05643412894405048    6    6   11    7
 0.1538881921428573    6    6   11   11
 -0.1087685333737943    6    6   12    1
 -0.07640276150248038    6    6   12    4
 -0.00911108967381705    6    6   12    5
 0.1538881921428574    6    6   12   12
 -0.003192802563940555    6    6   13    1
 0.009111089673817005    6    6   13    4
 -0.07640276150248054    6    6   13    5
 0.1538881921428575    6    6   13   13
 -0.1079351557424574    6    6   14    2
 -0.01381267516992835    6    6   14    3
 0.1538881921428573    6    6   14   14
 0.1070535397772935    7    1    4    2
 -0.01950198609500828    7    1    4    3
 -0.01950198609500832    7    1    5    2
 -0.1070535397772934    7    1    5    3
 0.153888192142857    7    1    7    1
 0.1086217356400977    7    1    8    2
 0.006488943444905688    7    1    8    3
 0.006488943444905688    7    1    9    2
 -0.1086217356400976    7    1    9    3
 -0.06138669445733775    7    1   10    4
 -0.08984687854399774    7    1   10    5
 -0.0898468785439978    7    1   11    4
 0.0613866944573377    7    1   11    5
 0.003192802563940568    7    1   12    6
 0.1087685333737941    7    1   12    7
 -0.0715937443499587    7    1   12   10
 -0.08194585779922739    7    1   12   11
 -0.1087685333737941    7    1   13    6
 0.003192802563940546    7    1   13    7
 -0.08194585779922729    7    1   13   10
 0.07159374434995866    7    1   13   11
 0.1535365833703938    7    1   14    8
 -0.01039679027118567    7    1   14    9
 0.07673539207220184    7    2    2    2
 -0.005663349165882018    7    2    3    2
 -0.07673539207220181    7    2    3    3
 0.1070535397772935    7    2    4    1
 0.07380300576984869    7    2    4    4
 -0.0195019860950083    7    2    5    1
 -0.02176029088925225    7    2    5    4
 -0.07380300576984886    7    2    5    5
 0.1538881921428571    7    2    7    2
 0.1086217356400977    7    2    8    1
 0.07685964533632532    7    2    8    4
 -0.003604003194156215    7    2    8    5
 0.006488943444905681    7    2    9    1
 -0.003604003194156294    7    2    9    4
 -0.07685964533632539    7    2    9    5
 -0.03640605757032134    7    2   10    2
 -0.0677863768941494    7    2   10    3
 -0.07028212299590049    7    2   10    6
 -0.03131799973558868    7    2   10    7
 -0.03025951823690764    7    2   10   10
 -0.06778637689414943    7    2   11    2
 0.03640605757032132    7    2   11    3
 0.03131799973558871    7    2   11    6
 -0.0702821229959005    7    2   11    7
 0.07074429642253477    7    2   11   10
 0.03025951823690766    7    2   11   11
 0.07607031015341462    7    2   12    4
 -0.01156295089553377    7    2   12    5
 0.1528008743032637    7    2   12    8
 -0.01034697144166864    7    2   12    9
 0.07416593309862692    7    2   12   12
 -0.01156295089553374    7    2   13    4
 -0.07607031015341464    7    2   13    5
 -0.0150125029629338    7    2   13    8
 0.001016577556468341    7    2   13    9
 -0.02048922370074596    7    2   13   12
 -0.07416593309862698    7    2   13   13
 0.01381267516992834    7    2   14    6
 0.1079351557424572    7    2   14    7
 -0.06323818131919702    7    2   14   10
 -0.0885534881522958    7    2   14   11
 -0.005663349165882018    7    3    2    2